 Entering Gaussian System, Link 0=/opt/cluster/programs/g16-c.01/g16/g16
 Input=/scratch/toepfer/jobs/tmp.5739913/gaussian_5_scn.com
 Output=/scratch/toepfer/jobs/tmp.5739913/gaussian_5_scn.out
 Initial command:
 /opt/cluster/programs/g16-c.01/g16/l1.exe "/scratch/toepfer/jobs/tmp.5739913/Gau-146269.inp" -scrdir="/scratch/toepfer/jobs/tmp.5739913/"
 Entering Link 1 = /opt/cluster/programs/g16-c.01/g16/l1.exe PID=    146270.
  
 Copyright (c) 1988-2019, Gaussian, Inc.  All Rights Reserved.
  
 This is part of the Gaussian(R) 16 program.  It is based on
 the Gaussian(R) 09 system (copyright 2009, Gaussian, Inc.),
 the Gaussian(R) 03 system (copyright 2003, Gaussian, Inc.),
 the Gaussian(R) 98 system (copyright 1998, Gaussian, Inc.),
 the Gaussian(R) 94 system (copyright 1995, Gaussian, Inc.),
 the Gaussian 92(TM) system (copyright 1992, Gaussian, Inc.),
 the Gaussian 90(TM) system (copyright 1990, Gaussian, Inc.),
 the Gaussian 88(TM) system (copyright 1988, Gaussian, Inc.),
 the Gaussian 86(TM) system (copyright 1986, Carnegie Mellon
 University), and the Gaussian 82(TM) system (copyright 1983,
 Carnegie Mellon University). Gaussian is a federally registered
 trademark of Gaussian, Inc.
  
 This software contains proprietary and confidential information,
 including trade secrets, belonging to Gaussian, Inc.
  
 This software is provided under written license and may be
 used, copied, transmitted, or stored only in accord with that
 written license.
  
 The following legend is applicable only to US Government
 contracts under FAR:
  
                    RESTRICTED RIGHTS LEGEND
  
 Use, reproduction and disclosure by the US Government is
 subject to restrictions as set forth in subparagraphs (a)
 and (c) of the Commercial Computer Software - Restricted
 Rights clause in FAR 52.227-19.
  
 Gaussian, Inc.
 340 Quinnipiac St., Bldg. 40, Wallingford CT 06492
  
  
 ---------------------------------------------------------------
 Warning -- This program may not be used in any manner that
 competes with the business of Gaussian, Inc. or will provide
 assistance to any competitor of Gaussian, Inc.  The licensee
 of this program is prohibited from giving any competitor of
 Gaussian, Inc. access to this program.  By using this program,
 the user acknowledges that Gaussian, Inc. is engaged in the
 business of creating and licensing software in the field of
 computational chemistry and represents and warrants to the
 licensee that it is not a competitor of Gaussian, Inc. and that
 it will not use this program in any manner prohibited above.
 ---------------------------------------------------------------
  

 Cite this work as:
 Gaussian 16, Revision C.01,
 M. J. Frisch, G. W. Trucks, H. B. Schlegel, G. E. Scuseria, 
 M. A. Robb, J. R. Cheeseman, G. Scalmani, V. Barone, 
 G. A. Petersson, H. Nakatsuji, X. Li, M. Caricato, A. V. Marenich, 
 J. Bloino, B. G. Janesko, R. Gomperts, B. Mennucci, H. P. Hratchian, 
 J. V. Ortiz, A. F. Izmaylov, J. L. Sonnenberg, D. Williams-Young, 
 F. Ding, F. Lipparini, F. Egidi, J. Goings, B. Peng, A. Petrone, 
 T. Henderson, D. Ranasinghe, V. G. Zakrzewski, J. Gao, N. Rega, 
 G. Zheng, W. Liang, M. Hada, M. Ehara, K. Toyota, R. Fukuda, 
 J. Hasegawa, M. Ishida, T. Nakajima, Y. Honda, O. Kitao, H. Nakai, 
 T. Vreven, K. Throssell, J. A. Montgomery, Jr., J. E. Peralta, 
 F. Ogliaro, M. J. Bearpark, J. J. Heyd, E. N. Brothers, K. N. Kudin, 
 V. N. Staroverov, T. A. Keith, R. Kobayashi, J. Normand, 
 K. Raghavachari, A. P. Rendell, J. C. Burant, S. S. Iyengar, 
 J. Tomasi, M. Cossi, J. M. Millam, M. Klene, C. Adamo, R. Cammi, 
 J. W. Ochterski, R. L. Martin, K. Morokuma, O. Farkas, 
 J. B. Foresman, and D. J. Fox, Gaussian, Inc., Wallingford CT, 2019.
 
 ******************************************
 Gaussian 16:  ES64L-G16RevC.01  3-Jul-2019
                 4-May-2022 
 ******************************************
 %nproc=4
 Will use up to    4 processors via shared memory.
 %mem=5760MB
 %chk=gaussian_5_scn.chk
 -----------------------------------------------------
 #P MP2/aug-cc-pVTZ scf(maxcycle=200) opt geom(AddGIC)
 -----------------------------------------------------
 1/18=20,19=15,38=1,145=903/1,3;
 2/9=110,12=2,17=6,18=5,40=1/2;
 3/5=16,6=1,7=10,11=9,25=1,30=1,71=1/1,2,3;
 4//1;
 5/5=2,7=200,38=5/2;
 8/6=4,10=1/1;
 9/15=2,16=-3/6;
 10/5=1/2;
 6/7=2,8=2,9=2,10=2/1;
 7/12=2/1,2,3,16;
 1/18=20,19=15,145=903/3(2);
 2/9=110/2;
 99//99;
 2/9=110/2;
 3/5=16,6=1,7=10,11=9,25=1,30=1,71=1/1,2,3;
 4/5=5,16=3,69=1/1;
 5/5=2,7=200,38=5/2;
 8/6=4,10=1/1;
 9/15=2,16=-3/6;
 10/5=1/2;
 7/12=2/1,2,3,16;
 1/18=20,19=15,145=903/3(-8);
 2/9=110/2;
 6/7=2,8=2,9=2,10=2/1;
 99/9=10/99;
 Leave Link    1 at Wed May  4 19:05:21 2022, MaxMem=   754974720 cpu:               0.1 elap:               0.1
 (Enter /opt/cluster/programs/g16-c.01/g16/l101.exe)
 --------------
 Gaussian input
 --------------
 Symbolic Z-matrix:
 Charge = -1 Multiplicity = 1
 N                     0.        0.       -1.82094 
 C                     0.        0.       -0.62859 
 S                     0.59524   0.        0.92206 
 
 Initializing the GIC definitions file.
 Number of initial coordinates =     3
 Number of input entries/lines =     1
 Number of additional coordinates =     0
 Number of removed coordinates =     0
 Number of frozen coordinates =     1
 Number of final active and frozen coordinates =     3
 ITRead=  0  0  0
 MicOpt= -1 -1 -1
 NAtoms=      3 NQM=        3 NQMF=       0 NMMI=      0 NMMIF=      0
                NMic=       0 NMicF=      0.
                    Isotopes and Nuclear Properties:
 (Nuclear quadrupole moments (NQMom) in fm**2, nuclear magnetic moments (NMagM)
  in nuclear magnetons)

  Atom         1           2           3
 IAtWgt=          14          12          32
 AtmWgt=  14.0030740  12.0000000  31.9720718
 NucSpn=           2           0           0
 AtZEff=  -0.0000000  -0.0000000  -0.0000000
 NQMom=    2.0440000   0.0000000   0.0000000
 NMagM=    0.4037610   0.0000000   0.0000000
 AtZNuc=   7.0000000   6.0000000  16.0000000
 Leave Link  101 at Wed May  4 19:05:22 2022, MaxMem=   754974720 cpu:               1.6 elap:               0.8
 (Enter /opt/cluster/programs/g16-c.01/g16/l103.exe)

 GradGradGradGradGradGradGradGradGradGradGradGradGradGradGradGradGradGrad
 Berny optimization.
 Initialization pass.
                           ----------------------------
                           !    Initial Parameters    !
                           ! (Angstroms and Degrees)  !
 --------------------------                            --------------------------
 ! Name  Definition              Value          Derivative Info.                !
 --------------------------------------------------------------------------------
 ! R1    R(1,2)                  1.1924         estimate D2E/DX2                !
 ! R2    R(2,3)                  1.661          estimate D2E/DX2                !
 ! A1    A(1,2,3)              159.0            Frozen                          !
 --------------------------------------------------------------------------------
 Trust Radius=3.00D-01 FncErr=1.00D-07 GrdErr=1.00D-07 EigMax=2.50D+02 EigMin=1.00D-04
 Number of steps in this run=     20 maximum allowed number of steps=    100.
 GradGradGradGradGradGradGradGradGradGradGradGradGradGradGradGradGradGrad

 Leave Link  103 at Wed May  4 19:05:22 2022, MaxMem=   754974720 cpu:               0.0 elap:               0.0
 (Enter /opt/cluster/programs/g16-c.01/g16/l202.exe)
                          Input orientation:                          
 ---------------------------------------------------------------------
 Center     Atomic      Atomic             Coordinates (Angstroms)
 Number     Number       Type             X           Y           Z
 ---------------------------------------------------------------------
      1          7           0        0.000000    0.000000   -1.820943
      2          6           0        0.000000    0.000000   -0.628586
      3         16           0        0.595238    0.000000    0.922061
 ---------------------------------------------------------------------
                    Distance matrix (angstroms):
                    1          2          3
     1  N    0.000000
     2  C    1.192357   0.000000
     3  S    2.806845   1.660968   0.000000
 Stoichiometry    CNS(1-)
 Framework group  CS[SG(CNS)]
 Deg. of freedom     3
 Full point group                 CS      NOp   2
 Largest Abelian subgroup         CS      NOp   2
 Largest concise Abelian subgroup C1      NOp   1
                         Standard orientation:                         
 ---------------------------------------------------------------------
 Center     Atomic      Atomic             Coordinates (Angstroms)
 Number     Number       Type             X           Y           Z
 ---------------------------------------------------------------------
      1          7           0        0.597043    1.687975    0.000000
      2          6           0        0.000000    0.655863    0.000000
      3         16           0       -0.261206   -0.984438    0.000000
 ---------------------------------------------------------------------
 Rotational constants (GHZ):         894.8483164           6.1144577           6.0729615
 Leave Link  202 at Wed May  4 19:05:22 2022, MaxMem=   754974720 cpu:               0.2 elap:               0.1
 (Enter /opt/cluster/programs/g16-c.01/g16/l301.exe)
 Standard basis: Aug-CC-pVTZ (5D, 7F)
 Ernie: Thresh=  0.10000D-02 Tol=  0.10000D-05 Strict=F.
 Ernie:  19 primitive shells out of 124 were deleted.
 There are   114 symmetry adapted cartesian basis functions of A'  symmetry.
 There are    55 symmetry adapted cartesian basis functions of A"  symmetry.
 There are    93 symmetry adapted basis functions of A'  symmetry.
 There are    49 symmetry adapted basis functions of A"  symmetry.
   142 basis functions,   258 primitive gaussians,   169 cartesian basis functions
    15 alpha electrons       15 beta electrons
       nuclear repulsion energy        70.3405744484 Hartrees.
 IExCor=    0 DFT=F Ex=HF Corr=None ExCW=0 ScaHFX=  1.000000
 ScaDFX=  1.000000  1.000000  1.000000  1.000000 ScalE2=  1.000000  1.000000
 IRadAn=      5 IRanWt=     -1 IRanGd=            0 ICorTp=0 IEmpDi=  4
 NAtoms=    3 NActive=    3 NUniq=    3 SFac= 1.00D+00 NAtFMM=   60 NAOKFM=F Big=F
 Integral buffers will be    131072 words long.
 Raffenetti 1 integral format.
 Two-electron integral symmetry is turned on.
 Leave Link  301 at Wed May  4 19:05:22 2022, MaxMem=   754974720 cpu:               0.2 elap:               0.1
 (Enter /opt/cluster/programs/g16-c.01/g16/l302.exe)
 NPDir=0 NMtPBC=     1 NCelOv=     1 NCel=       1 NClECP=     1 NCelD=      1
         NCelK=      1 NCelE2=     1 NClLst=     1 CellRange=     0.0.
 One-electron integrals computed using PRISM.
 One-electron integral symmetry used in STVInt
 NBasis=   142 RedAO= T EigKep=  1.03D-04  NBF=    93    49
 NBsUse=   142 1.00D-06 EigRej= -1.00D+00 NBFU=    93    49
 Leave Link  302 at Wed May  4 19:05:22 2022, MaxMem=   754974720 cpu:               1.4 elap:               0.5
 (Enter /opt/cluster/programs/g16-c.01/g16/l303.exe)
 DipDrv:  MaxL=1.
 Leave Link  303 at Wed May  4 19:05:23 2022, MaxMem=   754974720 cpu:               0.6 elap:               0.3
 (Enter /opt/cluster/programs/g16-c.01/g16/l401.exe)
 ExpMin= 3.51D-02 ExpMax= 3.74D+05 ExpMxC= 1.18D+03 IAcc=3 IRadAn=         5 AccDes= 0.00D+00
 Harris functional with IExCor=  205 and IRadAn=       5 diagonalized for initial guess.
 HarFok:  IExCor=  205 AccDes= 0.00D+00 IRadAn=         5 IDoV= 1 UseB2=F ITyADJ=14
 ICtDFT=  3500011 ScaDFX=  1.000000  1.000000  1.000000  1.000000
 FoFCou: FMM=F IPFlag=           0 FMFlag=      100000 FMFlg1=           0
         NFxFlg=           0 DoJE=T BraDBF=F KetDBF=T FulRan=T
         wScrn=  0.000000 ICntrl=       500 IOpCl=  0 I1Cent=   200000004 NGrid=           0
         NMat0=    1 NMatS0=      1 NMatT0=    0 NMatD0=    1 NMtDS0=    0 NMtDT0=    0
 Petite list used in FoFCou.
 Harris En= -489.759228931696    
 JPrj=0 DoOrth=F DoCkMO=F.
 Initial guess orbital symmetries:
       Occupied  (A') (A') (A') (A') (A') (A") (A') (A') (A') (A')
                 (A') (A") (A') (A") (A')
       Virtual   (A') (A") (A') (A') (A') (A") (A') (A') (A") (A')
                 (A') (A") (A') (A') (A") (A') (A') (A') (A") (A')
                 (A") (A') (A') (A") (A') (A') (A") (A') (A') (A")
                 (A') (A') (A") (A') (A") (A') (A") (A') (A') (A")
                 (A') (A') (A") (A') (A") (A') (A') (A") (A') (A')
                 (A") (A') (A") (A') (A') (A") (A') (A") (A') (A')
                 (A") (A') (A') (A") (A') (A") (A') (A") (A') (A')
                 (A') (A") (A') (A") (A') (A') (A") (A') (A") (A')
                 (A") (A') (A') (A") (A') (A") (A') (A") (A') (A')
                 (A') (A") (A') (A') (A") (A') (A') (A") (A") (A')
                 (A') (A") (A') (A') (A") (A') (A") (A') (A') (A")
                 (A') (A') (A") (A') (A') (A") (A") (A') (A') (A")
                 (A') (A') (A") (A') (A') (A') (A')
 The electronic state of the initial guess is 1-A'.
 Leave Link  401 at Wed May  4 19:05:24 2022, MaxMem=   754974720 cpu:               3.2 elap:               1.4
 (Enter /opt/cluster/programs/g16-c.01/g16/l502.exe)
 Keep R1 ints in memory in symmetry-blocked form, NReq=77616006.
 FoFCou: FMM=F IPFlag=           0 FMFlag=           0 FMFlg1=           0
         NFxFlg=           0 DoJE=F BraDBF=F KetDBF=F FulRan=T
         wScrn=  0.000000 ICntrl=       600 IOpCl=  0 I1Cent=           0 NGrid=           0
         NMat0=    1 NMatS0=  10153 NMatT0=    0 NMatD0=    1 NMtDS0=    0 NMtDT0=    0
 Petite list used in FoFCou.
 Closed shell SCF:
 Using DIIS extrapolation, IDIIS=  1040.
 NGot=   754974720 LenX=   728846748 LenY=   728817746
 Requested convergence on RMS density matrix=1.00D-08 within 200 cycles.
 Requested convergence on MAX density matrix=1.00D-06.
 Requested convergence on             energy=1.00D-06.
 No special actions if energy rises.

 Cycle   1  Pass 1  IDiag  1:
 E= -489.745397299301    
 DIIS: error= 4.48D-02 at cycle   1 NSaved=   1.
 NSaved= 1 IEnMin= 1 EnMin= -489.745397299301     IErMin= 1 ErrMin= 4.48D-02
 ErrMax= 4.48D-02  0.00D+00 EMaxC= 1.00D-01 BMatC= 3.49D-01 BMatP= 3.49D-01
 IDIUse=3 WtCom= 5.52D-01 WtEn= 4.48D-01
 Coeff-Com:  0.100D+01
 Coeff-En:   0.100D+01
 Coeff:      0.100D+01
 Gap=     0.547 Goal=   None    Shift=    0.000
 GapD=    0.547 DampG=2.000 DampE=0.500 DampFc=1.0000 IDamp=-1.
 RMSDP=3.39D-03 MaxDP=6.87D-02              OVMax= 2.18D-01

 Cycle   2  Pass 1  IDiag  1:
 E= -489.860228813789     Delta-E=       -0.114831514488 Rises=F Damp=F
 DIIS: error= 2.56D-02 at cycle   2 NSaved=   2.
 NSaved= 2 IEnMin= 2 EnMin= -489.860228813789     IErMin= 2 ErrMin= 2.56D-02
 ErrMax= 2.56D-02  0.00D+00 EMaxC= 1.00D-01 BMatC= 7.64D-02 BMatP= 3.49D-01
 IDIUse=3 WtCom= 7.44D-01 WtEn= 2.56D-01
 Coeff-Com:  0.260D+00 0.740D+00
 Coeff-En:   0.120D+00 0.880D+00
 Coeff:      0.224D+00 0.776D+00
 Gap=     0.378 Goal=   None    Shift=    0.000
 RMSDP=1.48D-03 MaxDP=4.23D-02 DE=-1.15D-01 OVMax= 9.32D-02

 Cycle   3  Pass 1  IDiag  1:
 E= -489.918563500686     Delta-E=       -0.058334686897 Rises=F Damp=F
 DIIS: error= 1.52D-02 at cycle   3 NSaved=   3.
 NSaved= 3 IEnMin= 3 EnMin= -489.918563500686     IErMin= 3 ErrMin= 1.52D-02
 ErrMax= 1.52D-02  0.00D+00 EMaxC= 1.00D-01 BMatC= 1.63D-02 BMatP= 7.64D-02
 IDIUse=3 WtCom= 8.48D-01 WtEn= 1.52D-01
 Coeff-Com: -0.160D-01 0.297D+00 0.719D+00
 Coeff-En:   0.000D+00 0.457D-01 0.954D+00
 Coeff:     -0.136D-01 0.259D+00 0.754D+00
 Gap=     0.318 Goal=   None    Shift=    0.000
 RMSDP=5.98D-04 MaxDP=1.40D-02 DE=-5.83D-02 OVMax= 5.11D-02

 Cycle   4  Pass 1  IDiag  1:
 E= -489.932732752706     Delta-E=       -0.014169252021 Rises=F Damp=F
 DIIS: error= 4.84D-03 at cycle   4 NSaved=   4.
 NSaved= 4 IEnMin= 4 EnMin= -489.932732752706     IErMin= 4 ErrMin= 4.84D-03
 ErrMax= 4.84D-03  0.00D+00 EMaxC= 1.00D-01 BMatC= 1.22D-03 BMatP= 1.63D-02
 IDIUse=3 WtCom= 9.52D-01 WtEn= 4.84D-02
 Coeff-Com: -0.142D-01 0.540D-01 0.286D+00 0.674D+00
 Coeff-En:   0.000D+00 0.000D+00 0.000D+00 0.100D+01
 Coeff:     -0.135D-01 0.513D-01 0.272D+00 0.690D+00
 Gap=     0.309 Goal=   None    Shift=    0.000
 RMSDP=1.47D-04 MaxDP=3.11D-03 DE=-1.42D-02 OVMax= 1.31D-02

 Cycle   5  Pass 1  IDiag  1:
 E= -489.933921707014     Delta-E=       -0.001188954308 Rises=F Damp=F
 DIIS: error= 9.57D-04 at cycle   5 NSaved=   5.
 NSaved= 5 IEnMin= 5 EnMin= -489.933921707014     IErMin= 5 ErrMin= 9.57D-04
 ErrMax= 9.57D-04  0.00D+00 EMaxC= 1.00D-01 BMatC= 6.46D-05 BMatP= 1.22D-03
 IDIUse=3 WtCom= 9.90D-01 WtEn= 9.57D-03
 Coeff-Com:  0.230D-02-0.394D-01-0.919D-01 0.468D-01 0.108D+01
 Coeff-En:   0.000D+00 0.000D+00 0.000D+00 0.000D+00 0.100D+01
 Coeff:      0.228D-02-0.390D-01-0.910D-01 0.463D-01 0.108D+01
 Gap=     0.309 Goal=   None    Shift=    0.000
 RMSDP=8.28D-05 MaxDP=1.74D-03 DE=-1.19D-03 OVMax= 5.73D-03

 Cycle   6  Pass 1  IDiag  1:
 E= -489.934074312438     Delta-E=       -0.000152605424 Rises=F Damp=F
 DIIS: error= 3.13D-04 at cycle   6 NSaved=   6.
 NSaved= 6 IEnMin= 6 EnMin= -489.934074312438     IErMin= 6 ErrMin= 3.13D-04
 ErrMax= 3.13D-04  0.00D+00 EMaxC= 1.00D-01 BMatC= 5.92D-06 BMatP= 6.46D-05
 IDIUse=3 WtCom= 9.97D-01 WtEn= 3.13D-03
 Coeff-Com:  0.104D-02-0.101D-01-0.317D-01-0.601D-01 0.915D-01 0.101D+01
 Coeff-En:   0.000D+00 0.000D+00 0.000D+00 0.000D+00 0.000D+00 0.100D+01
 Coeff:      0.104D-02-0.101D-01-0.316D-01-0.600D-01 0.912D-01 0.101D+01
 Gap=     0.310 Goal=   None    Shift=    0.000
 RMSDP=3.01D-05 MaxDP=5.44D-04 DE=-1.53D-04 OVMax= 2.53D-03

 Cycle   7  Pass 1  IDiag  1:
 E= -489.934093188590     Delta-E=       -0.000018876153 Rises=F Damp=F
 DIIS: error= 1.41D-04 at cycle   7 NSaved=   7.
 NSaved= 7 IEnMin= 7 EnMin= -489.934093188590     IErMin= 7 ErrMin= 1.41D-04
 ErrMax= 1.41D-04  0.00D+00 EMaxC= 1.00D-01 BMatC= 8.47D-07 BMatP= 5.92D-06
 IDIUse=3 WtCom= 9.99D-01 WtEn= 1.41D-03
 Coeff-Com: -0.156D-03 0.467D-02 0.127D-01-0.101D-01-0.126D+00-0.123D+00
 Coeff-Com:  0.124D+01
 Coeff-En:   0.000D+00 0.000D+00 0.000D+00 0.000D+00 0.000D+00 0.000D+00
 Coeff-En:   0.100D+01
 Coeff:     -0.156D-03 0.466D-02 0.127D-01-0.101D-01-0.126D+00-0.122D+00
 Coeff:      0.124D+01
 Gap=     0.310 Goal=   None    Shift=    0.000
 RMSDP=1.57D-05 MaxDP=3.66D-04 DE=-1.89D-05 OVMax= 1.32D-03

 Cycle   8  Pass 1  IDiag  1:
 E= -489.934096594684     Delta-E=       -0.000003406094 Rises=F Damp=F
 DIIS: error= 4.44D-05 at cycle   8 NSaved=   8.
 NSaved= 8 IEnMin= 8 EnMin= -489.934096594684     IErMin= 8 ErrMin= 4.44D-05
 ErrMax= 4.44D-05  0.00D+00 EMaxC= 1.00D-01 BMatC= 8.77D-08 BMatP= 8.47D-07
 IDIUse=1 WtCom= 1.00D+00 WtEn= 0.00D+00
 Coeff-Com: -0.885D-04-0.404D-03-0.472D-03 0.694D-02 0.347D-01-0.339D-01
 Coeff-Com: -0.440D+00 0.143D+01
 Coeff:     -0.885D-04-0.404D-03-0.472D-03 0.694D-02 0.347D-01-0.339D-01
 Coeff:     -0.440D+00 0.143D+01
 Gap=     0.310 Goal=   None    Shift=    0.000
 RMSDP=6.72D-06 MaxDP=2.34D-04 DE=-3.41D-06 OVMax= 5.21D-04

 Cycle   9  Pass 1  IDiag  1:
 E= -489.934097084593     Delta-E=       -0.000000489909 Rises=F Damp=F
 DIIS: error= 2.59D-05 at cycle   9 NSaved=   9.
 NSaved= 9 IEnMin= 9 EnMin= -489.934097084593     IErMin= 9 ErrMin= 2.59D-05
 ErrMax= 2.59D-05  0.00D+00 EMaxC= 1.00D-01 BMatC= 1.60D-08 BMatP= 8.77D-08
 IDIUse=1 WtCom= 1.00D+00 WtEn= 0.00D+00
 Coeff-Com:  0.492D-04-0.342D-03-0.107D-02-0.197D-02-0.151D-04 0.248D-01
 Coeff-Com:  0.458D-01-0.577D+00 0.151D+01
 Coeff:      0.492D-04-0.342D-03-0.107D-02-0.197D-02-0.151D-04 0.248D-01
 Coeff:      0.458D-01-0.577D+00 0.151D+01
 Gap=     0.310 Goal=   None    Shift=    0.000
 RMSDP=3.04D-06 MaxDP=9.89D-05 DE=-4.90D-07 OVMax= 2.39D-04

 Cycle  10  Pass 1  IDiag  1:
 E= -489.934097202524     Delta-E=       -0.000000117931 Rises=F Damp=F
 DIIS: error= 1.23D-05 at cycle  10 NSaved=  10.
 NSaved=10 IEnMin=10 EnMin= -489.934097202524     IErMin=10 ErrMin= 1.23D-05
 ErrMax= 1.23D-05  0.00D+00 EMaxC= 1.00D-01 BMatC= 3.83D-09 BMatP= 1.60D-08
 IDIUse=1 WtCom= 1.00D+00 WtEn= 0.00D+00
 Coeff-Com:  0.157D-04 0.190D-03 0.418D-03-0.117D-02-0.101D-01 0.219D-03
 Coeff-Com:  0.112D+00-0.219D+00-0.514D+00 0.163D+01
 Coeff:      0.157D-04 0.190D-03 0.418D-03-0.117D-02-0.101D-01 0.219D-03
 Coeff:      0.112D+00-0.219D+00-0.514D+00 0.163D+01
 Gap=     0.310 Goal=   None    Shift=    0.000
 RMSDP=1.77D-06 MaxDP=4.35D-05 DE=-1.18D-07 OVMax= 1.44D-04

 Cycle  11  Pass 1  IDiag  1:
 E= -489.934097234801     Delta-E=       -0.000000032277 Rises=F Damp=F
 DIIS: error= 2.56D-06 at cycle  11 NSaved=  11.
 NSaved=11 IEnMin=11 EnMin= -489.934097234801     IErMin=11 ErrMin= 2.56D-06
 ErrMax= 2.56D-06  0.00D+00 EMaxC= 1.00D-01 BMatC= 3.54D-10 BMatP= 3.83D-09
 IDIUse=1 WtCom= 1.00D+00 WtEn= 0.00D+00
 Coeff-Com: -0.129D-04 0.175D-04 0.550D-04 0.787D-03 0.254D-02-0.373D-02
 Coeff-Com: -0.374D-01 0.157D+00-0.133D+00-0.338D+00 0.135D+01
 Coeff:     -0.129D-04 0.175D-04 0.550D-04 0.787D-03 0.254D-02-0.373D-02
 Coeff:     -0.374D-01 0.157D+00-0.133D+00-0.338D+00 0.135D+01
 Gap=     0.310 Goal=   None    Shift=    0.000
 RMSDP=3.80D-07 MaxDP=8.70D-06 DE=-3.23D-08 OVMax= 3.42D-05

 Cycle  12  Pass 1  IDiag  1:
 E= -489.934097236732     Delta-E=       -0.000000001931 Rises=F Damp=F
 DIIS: error= 5.38D-07 at cycle  12 NSaved=  12.
 NSaved=12 IEnMin=12 EnMin= -489.934097236732     IErMin=12 ErrMin= 5.38D-07
 ErrMax= 5.38D-07  0.00D+00 EMaxC= 1.00D-01 BMatC= 2.09D-11 BMatP= 3.54D-10
 IDIUse=1 WtCom= 1.00D+00 WtEn= 0.00D+00
 Coeff-Com:  0.945D-07-0.168D-04-0.514D-04 0.268D-04 0.717D-03 0.195D-04
 Coeff-Com: -0.590D-02 0.472D-02 0.499D-01-0.919D-01-0.159D+00 0.120D+01
 Coeff:      0.945D-07-0.168D-04-0.514D-04 0.268D-04 0.717D-03 0.195D-04
 Coeff:     -0.590D-02 0.472D-02 0.499D-01-0.919D-01-0.159D+00 0.120D+01
 Gap=     0.310 Goal=   None    Shift=    0.000
 RMSDP=1.27D-07 MaxDP=4.85D-06 DE=-1.93D-09 OVMax= 6.76D-06

 Cycle  13  Pass 1  IDiag  1:
 E= -489.934097236833     Delta-E=       -0.000000000101 Rises=F Damp=F
 DIIS: error= 2.15D-07 at cycle  13 NSaved=  13.
 NSaved=13 IEnMin=13 EnMin= -489.934097236833     IErMin=13 ErrMin= 2.15D-07
 ErrMax= 2.15D-07  0.00D+00 EMaxC= 1.00D-01 BMatC= 1.90D-12 BMatP= 2.09D-11
 IDIUse=1 WtCom= 1.00D+00 WtEn= 0.00D+00
 Coeff-Com:  0.144D-05 0.846D-06 0.224D-05-0.923D-04-0.411D-03 0.267D-03
 Coeff-Com:  0.554D-02-0.177D-01 0.412D-02 0.546D-01-0.113D+00-0.197D+00
 Coeff-Com:  0.126D+01
 Coeff:      0.144D-05 0.846D-06 0.224D-05-0.923D-04-0.411D-03 0.267D-03
 Coeff:      0.554D-02-0.177D-01 0.412D-02 0.546D-01-0.113D+00-0.197D+00
 Coeff:      0.126D+01
 Gap=     0.310 Goal=   None    Shift=    0.000
 RMSDP=4.78D-08 MaxDP=2.01D-06 DE=-1.01D-10 OVMax= 2.61D-06

 Cycle  14  Pass 1  IDiag  1:
 E= -489.934097236841     Delta-E=       -0.000000000009 Rises=F Damp=F
 DIIS: error= 6.62D-08 at cycle  14 NSaved=  14.
 NSaved=14 IEnMin=14 EnMin= -489.934097236841     IErMin=14 ErrMin= 6.62D-08
 ErrMax= 6.62D-08  0.00D+00 EMaxC= 1.00D-01 BMatC= 1.25D-13 BMatP= 1.90D-12
 IDIUse=1 WtCom= 1.00D+00 WtEn= 0.00D+00
 Coeff-Com: -0.422D-06 0.538D-06 0.231D-05 0.248D-04 0.809D-04-0.510D-04
 Coeff-Com: -0.133D-02 0.471D-02-0.320D-02-0.116D-01 0.416D-01-0.369D-02
 Coeff-Com: -0.420D+00 0.139D+01
 Coeff:     -0.422D-06 0.538D-06 0.231D-05 0.248D-04 0.809D-04-0.510D-04
 Coeff:     -0.133D-02 0.471D-02-0.320D-02-0.116D-01 0.416D-01-0.369D-02
 Coeff:     -0.420D+00 0.139D+01
 Gap=     0.310 Goal=   None    Shift=    0.000
 RMSDP=1.15D-08 MaxDP=4.08D-07 DE=-8.64D-12 OVMax= 7.58D-07

 Cycle  15  Pass 1  IDiag  1:
 E= -489.934097236842     Delta-E=       -0.000000000001 Rises=F Damp=F
 DIIS: error= 1.32D-08 at cycle  15 NSaved=  15.
 NSaved=15 IEnMin=15 EnMin= -489.934097236842     IErMin=15 ErrMin= 1.32D-08
 ErrMax= 1.32D-08  0.00D+00 EMaxC= 1.00D-01 BMatC= 8.45D-15 BMatP= 1.25D-13
 IDIUse=1 WtCom= 1.00D+00 WtEn= 0.00D+00
 Coeff-Com:  0.899D-07-0.185D-06-0.941D-06-0.551D-05-0.104D-04 0.980D-05
 Coeff-Com:  0.222D-03-0.932D-03 0.114D-02 0.174D-02-0.116D-01 0.148D-01
 Coeff-Com:  0.983D-01-0.585D+00 0.148D+01
 Coeff:      0.899D-07-0.185D-06-0.941D-06-0.551D-05-0.104D-04 0.980D-05
 Coeff:      0.222D-03-0.932D-03 0.114D-02 0.174D-02-0.116D-01 0.148D-01
 Coeff:      0.983D-01-0.585D+00 0.148D+01
 Gap=     0.310 Goal=   None    Shift=    0.000
 RMSDP=2.51D-09 MaxDP=4.92D-08 DE=-1.25D-12 OVMax= 1.63D-07

 SCF Done:  E(RHF) =  -489.934097237     A.U. after   15 cycles
            NFock= 15  Conv=0.25D-08     -V/T= 2.0005
 KE= 4.897017790322D+02 PE=-1.311153285255D+03 EE= 2.611768345372D+02
 Leave Link  502 at Wed May  4 19:05:28 2022, MaxMem=   754974720 cpu:              11.9 elap:               4.1
 (Enter /opt/cluster/programs/g16-c.01/g16/l801.exe)
 ExpMin= 3.51D-02 ExpMax= 3.74D+05 ExpMxC= 1.18D+03 IAcc=3 IRadAn=         5 AccDes= 0.00D+00
 HarFok:  IExCor=  205 AccDes= 0.00D+00 IRadAn=         5 IDoV=-2 UseB2=F ITyADJ=14
 ICtDFT= 12500011 ScaDFX=  1.000000  1.000000  1.000000  1.000000
 DSYEVD-2 returned Info=          93 IAlg= 4 N=    46 NDim=    46 NE2=    15098045 trying  DSYEV.
 Largest valence mixing into a core orbital is  5.36D-04
 Largest core mixing into a valence orbital is  1.39D-04
 Range of M.O.s used for correlation:     8   142
 NBasis=   142 NAE=    15 NBE=    15 NFC=     7 NFV=     0
 NROrb=    135 NOA=     8 NOB=     8 NVA=   127 NVB=   127

 **** Warning!!: The largest alpha MO coefficient is  0.19801631D+02

 Leave Link  801 at Wed May  4 19:05:28 2022, MaxMem=   754974720 cpu:               0.4 elap:               0.1
 (Enter /opt/cluster/programs/g16-c.01/g16/l906.exe)
 Frozen-core derivative calculation, NFC=   7 NFV=   0.
 FulOut=F Deriv=T AODrv=T NAtomX=     3
   MMem=          74  MDisk=           8 MDiskD=           8
  W3Min=      359970 MinDsk=      723803 NBas6D=         169
 NBas2D=       14809    NTT=       14365    LW2=     3500000
    MDV=   754677601 MDiskM=       22268 NBas2p=       14795
 Fully direct method using O(ONN) memory.
 IMap=   1   2   3   4   5   6   7   8   9  10  11  12  13  14  15
 JobTyp=1 Pass  1:  I=   8 to  15 NPSUse=  4 ParTrn=T ParDer=T DoDerP=T.
 Spin components of T(2) and E(2):
     alpha-alpha T2 =       0.2921574294D-01 E2=     -0.6962347280D-01
     alpha-beta  T2 =       0.1535102861D+00 E2=     -0.3958449784D+00
     beta-beta   T2 =       0.2921574294D-01 E2=     -0.6962347280D-01
 The integrals were generated   1 times.
 ANorm=    0.1100882270D+01
 E2 =    -0.5350919240D+00 EUMP2 =    -0.49046918916080D+03
 Leave Link  906 at Wed May  4 19:05:37 2022, MaxMem=   754974720 cpu:              35.0 elap:               8.8
 (Enter /opt/cluster/programs/g16-c.01/g16/l1002.exe)
 Minotr:  Closed shell wavefunction.
          Computing MP2/KS-MP2 derivatives.
          Using Z-Vector for PSCF gradient.
          Skipping F1 and S1 gradient terms here.
          IDoAtm=111
          Frozen-core window.
          Direct CPHF calculation.
          Differentiating once with respect to electric field.
                with respect to dipole field.
          Differentiating once with respect to nuclear coordinates.
          Using symmetry in CPHF.
          Requested convergence is 1.0D-10 RMS, and 1.0D-09 maximum.
          NewPWx=F KeepS1=T KeepF1=T KeepIn=T MapXYZ=F SortEE=F KeepMc=T.
 Keep R1 ints in memory in symmetry-blocked form, NReq=77616884.
 FoFCou: FMM=F IPFlag=           0 FMFlag=           0 FMFlg1=           0
         NFxFlg=           0 DoJE=F BraDBF=F KetDBF=F FulRan=T
         wScrn=  0.000000 ICntrl=       600 IOpCl=  0 I1Cent=           0 NGrid=           0
         NMat0=    1 NMatS0=  10153 NMatT0=    0 NMatD0=    1 NMtDS0=    0 NMtDT0=    0
 Petite list used in FoFCou.
          MDV=     754974720 using IRadAn=       5.
          Solving linear equations separately, MaxMat=       0.
          There are     1 degrees of freedom in the 1st order CPHF.  IDoFFX=0 NUNeed=     1.
 LinEq1:  Iter=  0 NonCon=     1 RMS=5.02D-03 Max=8.37D-02 NDo=     1
 AX will form     1 AO Fock derivatives at one time.
 LinEq1:  Iter=  1 NonCon=     1 RMS=1.73D-03 Max=1.99D-02 NDo=     1
 LinEq1:  Iter=  2 NonCon=     1 RMS=6.11D-04 Max=6.90D-03 NDo=     1
 LinEq1:  Iter=  3 NonCon=     1 RMS=3.29D-04 Max=4.70D-03 NDo=     1
 LinEq1:  Iter=  4 NonCon=     1 RMS=1.48D-04 Max=2.86D-03 NDo=     1
 LinEq1:  Iter=  5 NonCon=     1 RMS=5.21D-05 Max=6.65D-04 NDo=     1
 LinEq1:  Iter=  6 NonCon=     1 RMS=1.69D-05 Max=2.50D-04 NDo=     1
 LinEq1:  Iter=  7 NonCon=     1 RMS=4.17D-06 Max=4.44D-05 NDo=     1
 LinEq1:  Iter=  8 NonCon=     1 RMS=8.26D-07 Max=7.27D-06 NDo=     1
 LinEq1:  Iter=  9 NonCon=     1 RMS=2.23D-07 Max=2.70D-06 NDo=     1
 LinEq1:  Iter= 10 NonCon=     1 RMS=5.23D-08 Max=6.19D-07 NDo=     1
 LinEq1:  Iter= 11 NonCon=     1 RMS=1.16D-08 Max=1.16D-07 NDo=     1
 LinEq1:  Iter= 12 NonCon=     1 RMS=2.24D-09 Max=2.11D-08 NDo=     1
 LinEq1:  Iter= 13 NonCon=     1 RMS=3.32D-10 Max=2.99D-09 NDo=     1
 LinEq1:  Iter= 14 NonCon=     0 RMS=5.16D-11 Max=5.58D-10 NDo=     1
 Linear equations converged to 1.000D-10 1.000D-09 after    14 iterations.
 End of Minotr F.D. properties file   721 does not exist.
 End of Minotr F.D. properties file   722 does not exist.
 End of Minotr F.D. properties file   788 does not exist.
 Leave Link 1002 at Wed May  4 19:05:41 2022, MaxMem=   754974720 cpu:              13.6 elap:               3.7
 (Enter /opt/cluster/programs/g16-c.01/g16/l601.exe)
 Copying SCF densities to generalized density rwf, IOpCl= 0 IROHF=0.

 **********************************************************************

            Population analysis using the SCF Density.

 **********************************************************************

 Orbital symmetries:
       Occupied  (A') (A') (A') (A') (A') (A") (A') (A') (A') (A')
                 (A') (A") (A') (A") (A')
       Virtual   (A') (A') (A') (A") (A') (A") (A') (A") (A') (A')
                 (A') (A') (A") (A') (A') (A") (A') (A') (A") (A')
                 (A") (A') (A') (A") (A') (A') (A") (A') (A') (A")
                 (A') (A') (A") (A') (A") (A') (A") (A') (A') (A")
                 (A') (A") (A') (A') (A") (A') (A') (A") (A') (A")
                 (A') (A') (A") (A') (A') (A") (A') (A") (A') (A')
                 (A") (A') (A') (A") (A') (A") (A') (A") (A') (A')
                 (A') (A") (A') (A") (A') (A') (A") (A') (A") (A')
                 (A") (A') (A") (A') (A') (A") (A') (A") (A') (A')
                 (A') (A") (A') (A') (A") (A') (A') (A") (A") (A')
                 (A') (A") (A') (A") (A') (A') (A") (A') (A') (A")
                 (A') (A') (A") (A') (A') (A") (A") (A') (A') (A")
                 (A') (A") (A') (A') (A') (A') (A')
 The electronic state is 1-A'.
 Alpha  occ. eigenvalues --  -91.72959 -15.35962 -11.10030  -8.73189  -6.41389
 Alpha  occ. eigenvalues --   -6.41138  -6.41135  -0.99799  -0.77150  -0.41345
 Alpha  occ. eigenvalues --   -0.33344  -0.29961  -0.29923  -0.13909  -0.13659
 Alpha virt. eigenvalues --    0.17318   0.19221   0.23116   0.23675   0.23918
 Alpha virt. eigenvalues --    0.24002   0.24821   0.29815   0.30246   0.31140
 Alpha virt. eigenvalues --    0.35088   0.38201   0.40199   0.41952   0.44512
 Alpha virt. eigenvalues --    0.44807   0.45518   0.54379   0.54432   0.54633
 Alpha virt. eigenvalues --    0.55132   0.57761   0.62502   0.63926   0.64463
 Alpha virt. eigenvalues --    0.71109   0.72496   0.75334   0.77477   0.77484
 Alpha virt. eigenvalues --    0.79541   0.81474   0.82511   0.88394   0.89870
 Alpha virt. eigenvalues --    0.92389   0.94921   0.95213   1.00480   1.02678
 Alpha virt. eigenvalues --    1.03277   1.06184   1.06195   1.13413   1.14594
 Alpha virt. eigenvalues --    1.14667   1.27887   1.28514   1.29064   1.29682
 Alpha virt. eigenvalues --    1.32103   1.33923   1.36014   1.37550   1.42820
 Alpha virt. eigenvalues --    1.45081   1.45983   1.57257   1.57867   1.58009
 Alpha virt. eigenvalues --    1.71710   1.72654   1.75745   1.83415   1.86557
 Alpha virt. eigenvalues --    1.90055   1.92388   2.02537   2.03591   2.07635
 Alpha virt. eigenvalues --    2.14035   2.15585   2.19265   2.28719   2.28899
 Alpha virt. eigenvalues --    2.31916   2.33151   2.39431   2.47112   2.47446
 Alpha virt. eigenvalues --    2.52991   2.54300   2.59807   2.59810   2.60617
 Alpha virt. eigenvalues --    2.62061   2.67475   2.69189   2.75269   2.83138
 Alpha virt. eigenvalues --    3.00888   3.02328   3.23900   3.32126   3.33404
 Alpha virt. eigenvalues --    3.60829   3.66897   3.66902   3.69921   3.70020
 Alpha virt. eigenvalues --    3.80792   3.86813   3.91260   3.95485   3.96833
 Alpha virt. eigenvalues --    4.12634   4.15601   4.27888   4.69184   4.73628
 Alpha virt. eigenvalues --    4.82108   4.94610   5.20387   5.20404   5.46976
 Alpha virt. eigenvalues --    5.47553   5.67410   5.67958   5.82752   5.86769
 Alpha virt. eigenvalues --    6.22101   6.32119   6.35557   6.40378   6.77955
 Alpha virt. eigenvalues --   11.89926  16.43297
          Condensed to atoms (all electrons):
               1          2          3
     1  N    6.845861   0.690371  -0.113904
     2  C    0.690371   5.060557   0.352491
     3  S   -0.113904   0.352491  16.235665
 Mulliken charges:
               1
     1  N   -0.422328
     2  C   -0.103420
     3  S   -0.474252
 Sum of Mulliken charges =  -1.00000
 Mulliken charges with hydrogens summed into heavy atoms:
               1
     1  N   -0.422328
     2  C   -0.103420
     3  S   -0.474252
 Electronic spatial extent (au):  <R**2>=            222.6607
 Charge=             -1.0000 electrons
 Dipole moment (field-independent basis, Debye):
    X=             -0.5692    Y=             -1.2757    Z=              0.0000  Tot=              1.3969
 Quadrupole moment (field-independent basis, Debye-Ang):
   XX=            -30.6066   YY=            -39.6715   ZZ=            -29.3059
   XY=             -3.9800   XZ=              0.0000   YZ=              0.0000
 Traceless Quadrupole moment (field-independent basis, Debye-Ang):
   XX=              2.5881   YY=             -6.4768   ZZ=              3.8888
   XY=             -3.9800   XZ=              0.0000   YZ=              0.0000
 Octapole moment (field-independent basis, Debye-Ang**2):
  XXX=              1.9393  YYY=            -18.3272  ZZZ=              0.0000  XYY=             -5.3370
  XXY=              0.4434  XXZ=              0.0000  XZZ=              0.7529  YZZ=              1.9322
  YYZ=              0.0000  XYZ=              0.0000
 Hexadecapole moment (field-independent basis, Debye-Ang**3):
 XXXX=            -68.8955 YYYY=           -293.7796 ZZZZ=            -46.0125 XXXY=            -36.5701
 XXXZ=              0.0000 YYYX=            -41.8973 YYYZ=              0.0000 ZZZX=              0.0000
 ZZZY=              0.0000 XXYY=            -61.7575 XXZZ=            -19.1043 YYZZ=            -55.1923
 XXYZ=              0.0000 YYXZ=              0.0000 ZZXY=            -11.8635
 N-N= 7.034057444838D+01 E-N=-1.311153285273D+03  KE= 4.897017790322D+02
 Symmetry A'   KE= 4.486980197338D+02
 Symmetry A"   KE= 4.100375929848D+01
 No NMR shielding tensors so no spin-rotation constants.
 Leave Link  601 at Wed May  4 19:05:41 2022, MaxMem=   754974720 cpu:               0.7 elap:               0.2
 (Enter /opt/cluster/programs/g16-c.01/g16/l701.exe)
 ... and contract with generalized density number  2.
 Compute integral first derivatives.
 Leave Link  701 at Wed May  4 19:05:41 2022, MaxMem=   754974720 cpu:               0.7 elap:               0.2
 (Enter /opt/cluster/programs/g16-c.01/g16/l702.exe)
 L702 exits ... SP integral derivatives will be done elsewhere.
 Leave Link  702 at Wed May  4 19:05:41 2022, MaxMem=   754974720 cpu:               0.1 elap:               0.0
 (Enter /opt/cluster/programs/g16-c.01/g16/l703.exe)
 Integral derivatives from FoFJK, PRISM(SPDF).
 Compute integral first derivatives, UseDBF=F ICtDFT=           0.
 Calling FoFJK, ICntrl=  10002127 FMM=F ISym2X=1 I1Cent= 0 IOpClX= 0 NMat=1 NMatS=1 NMatT=0.
 FoFJK:  IHMeth= 1 ICntrl=10002127 DoSepK=F KAlg= 0 I1Cent=           0 FoldK=F
 IRaf=         0 NMat=       1 IRICut=       1 DoRegI=T DoRafI=F ISym2E= 1 IDoP0=0 IntGTp=1.
 FoFCou: FMM=F IPFlag=           0 FMFlag=      100000 FMFlg1=         800
         NFxFlg=           0 DoJE=F BraDBF=F KetDBF=F FulRan=T
         wScrn=  0.000000 ICntrl=  10002127 IOpCl=  0 I1Cent=           0 NGrid=           0
         NMat0=    1 NMatS0=      1 NMatT0=    0 NMatD0=    1 NMtDS0=    0 NMtDT0=    0
 Petite list used in FoFCou.
 Leave Link  703 at Wed May  4 19:05:47 2022, MaxMem=   754974720 cpu:              20.3 elap:               5.4
 (Enter /opt/cluster/programs/g16-c.01/g16/l716.exe)
 Dipole        =-1.78833993D-01-4.90392146D-01 0.00000000D+00
 ***** Axes restored to original set *****
 -------------------------------------------------------------------
 Center     Atomic                   Forces (Hartrees/Bohr)
 Number     Number              X              Y              Z
 -------------------------------------------------------------------
      1        7          -0.020168205   -0.000000000   -0.005287600
      2        6           0.031602929   -0.000000000   -0.005324065
      3       16          -0.011434724   -0.000000000    0.010611665
 -------------------------------------------------------------------
 Cartesian Forces:  Max     0.031602929 RMS     0.013764553
 Leave Link  716 at Wed May  4 19:05:47 2022, MaxMem=   754974720 cpu:               0.2 elap:               0.1
 (Enter /opt/cluster/programs/g16-c.01/g16/l103.exe)

 GradGradGradGradGradGradGradGradGradGradGradGradGradGradGradGradGradGrad
 Berny optimization.
 FormGI is forming the generalized inverse of G from B-inverse, IUseBI=4.
 Internal  Forces:  Max     0.045443557 RMS     0.026625928
 Search for a local minimum.
 Step number   1 out of a maximum of   20
 All quantities printed in internal units (Hartrees-Bohrs-Radians)
 RMS Force = .55544D-02 SwitMx=.10000D-02 MixMth= 1
 Mixed Optimization -- RFO/linear search
 Second derivative matrix not updated -- first step.
 The second derivative matrix:
                          R1        R2        A1
           R1           1.08759
           R2           0.00000   0.41030
           A1           0.00000   0.00000   0.25000
 ITU=  0
     Eigenvalues ---    0.41030   1.087591000.00000
 RFO step:  Lambda=-1.07926507D-04 EMin= 4.10299174D-01
 Linear search not attempted -- first point.
 Iteration  1 RMS(Cart)=  0.00799720 RMS(Int)=  0.00000019
 Iteration  2 RMS(Cart)=  0.00000021 RMS(Int)=  0.00000000
 Iteration  1 RMS(Cart)=  0.00000000 RMS(Int)=  0.00000000
 ITry= 1 IFail=0 DXMaxC= 1.05D-02 DCOld= 1.00D+10 DXMaxT= 3.00D-01 DXLimC= 3.00D+00 Rises=F
 ClnCor:  largest displacement from symmetrization is 2.37D-15 for atom     1.
 Variable       Old X    -DE/DX   Delta X   Delta X   Delta X     New X
                                 (Linear)    (Quad)   (Total)
    R1        2.25323   0.00529   0.00000   0.00486   0.00486   2.25809
    R2        3.13877   0.00581   0.00000   0.01415   0.01415   3.15293
    A1        2.77507   0.04544   0.00000   0.00000   0.00000   2.77507
         Item               Value     Threshold  Converged?
 Maximum Force            0.005809     0.000450     NO 
 RMS     Force            0.005554     0.000300     NO 
 Maximum Displacement     0.010534     0.001800     NO 
 RMS     Displacement     0.007997     0.001200     NO 
 Predicted change in Energy=-5.397534D-05
 Lowest energy point so far.  Saving SCF results.
 GradGradGradGradGradGradGradGradGradGradGradGradGradGradGradGradGradGrad

 Leave Link  103 at Wed May  4 19:05:47 2022, MaxMem=   754974720 cpu:               0.0 elap:               0.0
 (Enter /opt/cluster/programs/g16-c.01/g16/l202.exe)
                          Input orientation:                          
 ---------------------------------------------------------------------
 Center     Atomic      Atomic             Coordinates (Angstroms)
 Number     Number       Type             X           Y           Z
 ---------------------------------------------------------------------
      1          7           0       -0.000713    0.000000   -1.825016
      2          6           0       -0.000878    0.000000   -0.630087
      3         16           0        0.596829    0.000000    0.927635
 ---------------------------------------------------------------------
                    Distance matrix (angstroms):
                    1          2          3
     1  N    0.000000
     2  C    1.194929   0.000000
     3  S    2.816762   1.668458   0.000000
 Stoichiometry    CNS(1-)
 Framework group  CS[SG(CNS)]
 Deg. of freedom     3
 Full point group                 CS      NOp   2
 RotChk:  IX=0 Diff= 9.22D-04
 Largest Abelian subgroup         CS      NOp   2
 Largest concise Abelian subgroup C1      NOp   1
                         Standard orientation:                         
 ---------------------------------------------------------------------
 Center     Atomic      Atomic             Coordinates (Angstroms)
 Number     Number       Type             X           Y           Z
 ---------------------------------------------------------------------
      1          7           0        0.597799    1.694053    0.000000
      2          6           0        0.000000    0.659407    0.000000
      3         16           0       -0.261537   -0.988426   -0.000000
 ---------------------------------------------------------------------
 Rotational constants (GHZ):         889.5359136           6.0696531           6.0285182
 Leave Link  202 at Wed May  4 19:05:47 2022, MaxMem=   754974720 cpu:               0.1 elap:               0.0
 (Enter /opt/cluster/programs/g16-c.01/g16/l301.exe)
 Standard basis: Aug-CC-pVTZ (5D, 7F)
 Ernie: Thresh=  0.10000D-02 Tol=  0.10000D-05 Strict=F.
 Ernie:  19 primitive shells out of 124 were deleted.
 There are   114 symmetry adapted cartesian basis functions of A'  symmetry.
 There are    55 symmetry adapted cartesian basis functions of A"  symmetry.
 There are    93 symmetry adapted basis functions of A'  symmetry.
 There are    49 symmetry adapted basis functions of A"  symmetry.
   142 basis functions,   258 primitive gaussians,   169 cartesian basis functions
    15 alpha electrons       15 beta electrons
       nuclear repulsion energy        70.0888017114 Hartrees.
 IExCor=    0 DFT=F Ex=HF Corr=None ExCW=0 ScaHFX=  1.000000
 ScaDFX=  1.000000  1.000000  1.000000  1.000000 ScalE2=  1.000000  1.000000
 IRadAn=      5 IRanWt=     -1 IRanGd=            0 ICorTp=0 IEmpDi=  4
 NAtoms=    3 NActive=    3 NUniq=    3 SFac= 1.00D+00 NAtFMM=   60 NAOKFM=F Big=F
 Integral buffers will be    131072 words long.
 Raffenetti 1 integral format.
 Two-electron integral symmetry is turned on.
 Leave Link  301 at Wed May  4 19:05:47 2022, MaxMem=   754974720 cpu:               0.2 elap:               0.1
 (Enter /opt/cluster/programs/g16-c.01/g16/l302.exe)
 NPDir=0 NMtPBC=     1 NCelOv=     1 NCel=       1 NClECP=     1 NCelD=      1
         NCelK=      1 NCelE2=     1 NClLst=     1 CellRange=     0.0.
 One-electron integrals computed using PRISM.
 One-electron integral symmetry used in STVInt
 NBasis=   142 RedAO= T EigKep=  1.04D-04  NBF=    93    49
 NBsUse=   142 1.00D-06 EigRej= -1.00D+00 NBFU=    93    49
 Leave Link  302 at Wed May  4 19:05:50 2022, MaxMem=   754974720 cpu:               5.7 elap:               2.8
 (Enter /opt/cluster/programs/g16-c.01/g16/l303.exe)
 DipDrv:  MaxL=1.
 Leave Link  303 at Wed May  4 19:05:50 2022, MaxMem=   754974720 cpu:               0.8 elap:               0.3
 (Enter /opt/cluster/programs/g16-c.01/g16/l401.exe)
 Initial guess from the checkpoint file:  "gaussian_5_scn.chk"
 B after Tr=    -0.000000   -0.000000   -0.000000
         Rot=    1.000000   -0.000000   -0.000000   -0.000334 Ang=  -0.04 deg.
 Guess basis will be translated and rotated to current coordinates.
 JPrj=2 DoOrth=T DoCkMO=T.
 Initial guess orbital symmetries:
       Occupied  (A') (A') (A') (A') (A') (A") (A') (A') (A') (A')
                 (A') (A") (A') (A") (A')
       Virtual   (A') (A') (A') (A") (A') (A") (A') (A") (A') (A')
                 (A') (A') (A") (A') (A') (A") (A') (A') (A") (A')
                 (A") (A') (A') (A") (A') (A') (A") (A') (A') (A")
                 (A') (A') (A") (A') (A") (A') (A") (A') (A') (A")
                 (A') (A") (A') (A') (A") (A') (A') (A") (A') (A")
                 (A') (A') (A") (A') (A') (A") (A') (A") (A') (A')
                 (A") (A') (A') (A") (A') (A") (A') (A") (A') (A')
                 (A') (A") (A') (A") (A') (A') (A") (A') (A") (A')
                 (A") (A') (A") (A') (A') (A") (A') (A") (A') (A')
                 (A') (A") (A') (A') (A") (A') (A') (A") (A") (A')
                 (A') (A") (A') (A") (A') (A') (A") (A') (A') (A")
                 (A') (A') (A") (A') (A') (A") (A") (A') (A') (A")
                 (A') (A") (A') (A') (A') (A') (A')
 The electronic state of the initial guess is 1-A'.
 Leave Link  401 at Wed May  4 19:05:51 2022, MaxMem=   754974720 cpu:               1.7 elap:               0.6
 (Enter /opt/cluster/programs/g16-c.01/g16/l502.exe)
 Keep R1 ints in memory in symmetry-blocked form, NReq=77616006.
 FoFCou: FMM=F IPFlag=           0 FMFlag=           0 FMFlg1=           0
         NFxFlg=           0 DoJE=F BraDBF=F KetDBF=F FulRan=T
         wScrn=  0.000000 ICntrl=       600 IOpCl=  0 I1Cent=           0 NGrid=           0
         NMat0=    1 NMatS0=  10153 NMatT0=    0 NMatD0=    1 NMtDS0=    0 NMtDT0=    0
 Petite list used in FoFCou.
 Closed shell SCF:
 Using DIIS extrapolation, IDIIS=  1040.
 NGot=   754974720 LenX=   728846748 LenY=   728817746
 Requested convergence on RMS density matrix=1.00D-08 within 200 cycles.
 Requested convergence on MAX density matrix=1.00D-06.
 Requested convergence on             energy=1.00D-06.
 No special actions if energy rises.

 Cycle   1  Pass 1  IDiag  1:
 E= -489.933734977540    
 DIIS: error= 4.11D-04 at cycle   1 NSaved=   1.
 NSaved= 1 IEnMin= 1 EnMin= -489.933734977540     IErMin= 1 ErrMin= 4.11D-04
 ErrMax= 4.11D-04  0.00D+00 EMaxC= 1.00D-01 BMatC= 1.78D-05 BMatP= 1.78D-05
 IDIUse=3 WtCom= 9.96D-01 WtEn= 4.11D-03
 Coeff-Com:  0.100D+01
 Coeff-En:   0.100D+01
 Coeff:      0.100D+01
 Gap=     0.310 Goal=   None    Shift=    0.000
 RMSDP=4.40D-05 MaxDP=1.17D-03              OVMax= 1.43D-03

 Cycle   2  Pass 1  IDiag  1:
 E= -489.933754235232     Delta-E=       -0.000019257691 Rises=F Damp=F
 DIIS: error= 2.22D-04 at cycle   2 NSaved=   2.
 NSaved= 2 IEnMin= 2 EnMin= -489.933754235232     IErMin= 2 ErrMin= 2.22D-04
 ErrMax= 2.22D-04  0.00D+00 EMaxC= 1.00D-01 BMatC= 2.35D-06 BMatP= 1.78D-05
 IDIUse=3 WtCom= 9.98D-01 WtEn= 2.22D-03
 Coeff-Com:  0.134D+00 0.866D+00
 Coeff-En:   0.000D+00 0.100D+01
 Coeff:      0.134D+00 0.866D+00
 Gap=     0.310 Goal=   None    Shift=    0.000
 RMSDP=1.26D-05 MaxDP=3.39D-04 DE=-1.93D-05 OVMax= 7.62D-04

 Cycle   3  Pass 1  IDiag  1:
 E= -489.933756874016     Delta-E=       -0.000002638784 Rises=F Damp=F
 DIIS: error= 1.16D-04 at cycle   3 NSaved=   3.
 NSaved= 3 IEnMin= 3 EnMin= -489.933756874016     IErMin= 3 ErrMin= 1.16D-04
 ErrMax= 1.16D-04  0.00D+00 EMaxC= 1.00D-01 BMatC= 5.65D-07 BMatP= 2.35D-06
 IDIUse=3 WtCom= 9.99D-01 WtEn= 1.16D-03
 Coeff-Com: -0.717D-01 0.244D+00 0.828D+00
 Coeff-En:   0.000D+00 0.000D+00 0.100D+01
 Coeff:     -0.716D-01 0.244D+00 0.828D+00
 Gap=     0.310 Goal=   None    Shift=    0.000
 RMSDP=4.20D-06 MaxDP=1.01D-04 DE=-2.64D-06 OVMax= 3.37D-04

 Cycle   4  Pass 1  IDiag  1:
 E= -489.933757622349     Delta-E=       -0.000000748334 Rises=F Damp=F
 DIIS: error= 3.31D-05 at cycle   4 NSaved=   4.
 NSaved= 4 IEnMin= 4 EnMin= -489.933757622349     IErMin= 4 ErrMin= 3.31D-05
 ErrMax= 3.31D-05  0.00D+00 EMaxC= 1.00D-01 BMatC= 7.53D-08 BMatP= 5.65D-07
 IDIUse=1 WtCom= 1.00D+00 WtEn= 0.00D+00
 Coeff-Com: -0.322D-01-0.208D-01 0.251D+00 0.802D+00
 Coeff:     -0.322D-01-0.208D-01 0.251D+00 0.802D+00
 Gap=     0.310 Goal=   None    Shift=    0.000
 RMSDP=2.20D-06 MaxDP=4.67D-05 DE=-7.48D-07 OVMax= 1.42D-04

 Cycle   5  Pass 1  IDiag  1:
 E= -489.933757740174     Delta-E=       -0.000000117824 Rises=F Damp=F
 DIIS: error= 1.48D-05 at cycle   5 NSaved=   5.
 NSaved= 5 IEnMin= 5 EnMin= -489.933757740174     IErMin= 5 ErrMin= 1.48D-05
 ErrMax= 1.48D-05  0.00D+00 EMaxC= 1.00D-01 BMatC= 1.07D-08 BMatP= 7.53D-08
 IDIUse=1 WtCom= 1.00D+00 WtEn= 0.00D+00
 Coeff-Com:  0.109D-01-0.579D-01-0.124D+00 0.122D+00 0.105D+01
 Coeff:      0.109D-01-0.579D-01-0.124D+00 0.122D+00 0.105D+01
 Gap=     0.310 Goal=   None    Shift=    0.000
 RMSDP=1.36D-06 MaxDP=4.03D-05 DE=-1.18D-07 OVMax= 7.97D-05

 Cycle   6  Pass 1  IDiag  1:
 E= -489.933757767008     Delta-E=       -0.000000026835 Rises=F Damp=F
 DIIS: error= 2.72D-06 at cycle   6 NSaved=   6.
 NSaved= 6 IEnMin= 6 EnMin= -489.933757767008     IErMin= 6 ErrMin= 2.72D-06
 ErrMax= 2.72D-06  0.00D+00 EMaxC= 1.00D-01 BMatC= 7.31D-10 BMatP= 1.07D-08
 IDIUse=1 WtCom= 1.00D+00 WtEn= 0.00D+00
 Coeff-Com:  0.313D-02 0.282D-02-0.266D-01-0.664D-01 0.607D-02 0.108D+01
 Coeff:      0.313D-02 0.282D-02-0.266D-01-0.664D-01 0.607D-02 0.108D+01
 Gap=     0.310 Goal=   None    Shift=    0.000
 RMSDP=3.79D-07 MaxDP=9.23D-06 DE=-2.68D-08 OVMax= 2.70D-05

 Cycle   7  Pass 1  IDiag  1:
 E= -489.933757769465     Delta-E=       -0.000000002457 Rises=F Damp=F
 DIIS: error= 1.85D-06 at cycle   7 NSaved=   7.
 NSaved= 7 IEnMin= 7 EnMin= -489.933757769465     IErMin= 7 ErrMin= 1.85D-06
 ErrMax= 1.85D-06  0.00D+00 EMaxC= 1.00D-01 BMatC= 1.07D-10 BMatP= 7.31D-10
 IDIUse=1 WtCom= 1.00D+00 WtEn= 0.00D+00
 Coeff-Com: -0.130D-02 0.821D-02 0.121D-01-0.109D-01-0.156D+00 0.479D-01
 Coeff-Com:  0.110D+01
 Coeff:     -0.130D-02 0.821D-02 0.121D-01-0.109D-01-0.156D+00 0.479D-01
 Coeff:      0.110D+01
 Gap=     0.310 Goal=   None    Shift=    0.000
 RMSDP=1.64D-07 MaxDP=4.92D-06 DE=-2.46D-09 OVMax= 1.03D-05

 Cycle   8  Pass 1  IDiag  1:
 E= -489.933757769760     Delta-E=       -0.000000000295 Rises=F Damp=F
 DIIS: error= 2.80D-07 at cycle   8 NSaved=   8.
 NSaved= 8 IEnMin= 8 EnMin= -489.933757769760     IErMin= 8 ErrMin= 2.80D-07
 ErrMax= 2.80D-07  0.00D+00 EMaxC= 1.00D-01 BMatC= 4.42D-12 BMatP= 1.07D-10
 IDIUse=1 WtCom= 1.00D+00 WtEn= 0.00D+00
 Coeff-Com:  0.288D-04-0.101D-02-0.616D-03 0.551D-02 0.151D-01-0.388D-01
 Coeff-Com: -0.201D+00 0.122D+01
 Coeff:      0.288D-04-0.101D-02-0.616D-03 0.551D-02 0.151D-01-0.388D-01
 Coeff:     -0.201D+00 0.122D+01
 Gap=     0.310 Goal=   None    Shift=    0.000
 RMSDP=4.65D-08 MaxDP=1.77D-06 DE=-2.95D-10 OVMax= 2.39D-06

 Cycle   9  Pass 1  IDiag  1:
 E= -489.933757769774     Delta-E=       -0.000000000014 Rises=F Damp=F
 DIIS: error= 1.09D-07 at cycle   9 NSaved=   9.
 NSaved= 9 IEnMin= 9 EnMin= -489.933757769774     IErMin= 9 ErrMin= 1.09D-07
 ErrMax= 1.09D-07  0.00D+00 EMaxC= 1.00D-01 BMatC= 5.97D-13 BMatP= 4.42D-12
 IDIUse=1 WtCom= 1.00D+00 WtEn= 0.00D+00
 Coeff-Com:  0.842D-04-0.327D-03-0.804D-03 0.120D-03 0.755D-02 0.497D-02
 Coeff-Com: -0.332D-01-0.305D+00 0.133D+01
 Coeff:      0.842D-04-0.327D-03-0.804D-03 0.120D-03 0.755D-02 0.497D-02
 Coeff:     -0.332D-01-0.305D+00 0.133D+01
 Gap=     0.310 Goal=   None    Shift=    0.000
 RMSDP=1.80D-08 MaxDP=6.91D-07 DE=-1.42D-11 OVMax= 1.13D-06

 Cycle  10  Pass 1  IDiag  1:
 E= -489.933757769778     Delta-E=       -0.000000000004 Rises=F Damp=F
 DIIS: error= 6.75D-08 at cycle  10 NSaved=  10.
 NSaved=10 IEnMin=10 EnMin= -489.933757769778     IErMin=10 ErrMin= 6.75D-08
 ErrMax= 6.75D-08  0.00D+00 EMaxC= 1.00D-01 BMatC= 1.30D-13 BMatP= 5.97D-13
 IDIUse=1 WtCom= 1.00D+00 WtEn= 0.00D+00
 Coeff-Com: -0.232D-04 0.215D-03 0.218D-03-0.682D-03-0.438D-02 0.445D-02
 Coeff-Com:  0.383D-01-0.850D-01-0.430D+00 0.148D+01
 Coeff:     -0.232D-04 0.215D-03 0.218D-03-0.682D-03-0.438D-02 0.445D-02
 Coeff:      0.383D-01-0.850D-01-0.430D+00 0.148D+01
 Gap=     0.310 Goal=   None    Shift=    0.000
 RMSDP=8.57D-09 MaxDP=2.72D-07 DE=-4.09D-12 OVMax= 6.59D-07

 SCF Done:  E(RHF) =  -489.933757770     A.U. after   10 cycles
            NFock= 10  Conv=0.86D-08     -V/T= 2.0005
 KE= 4.896725637695D+02 PE=-1.310613183033D+03 EE= 2.609180597827D+02
 Leave Link  502 at Wed May  4 19:05:54 2022, MaxMem=   754974720 cpu:              12.1 elap:               3.3
 (Enter /opt/cluster/programs/g16-c.01/g16/l801.exe)
 ExpMin= 3.51D-02 ExpMax= 3.74D+05 ExpMxC= 1.18D+03 IAcc=3 IRadAn=         5 AccDes= 0.00D+00
 HarFok:  IExCor=  205 AccDes= 0.00D+00 IRadAn=         5 IDoV=-2 UseB2=F ITyADJ=14
 ICtDFT= 12500011 ScaDFX=  1.000000  1.000000  1.000000  1.000000
 Largest valence mixing into a core orbital is  5.37D-04
 Largest core mixing into a valence orbital is  1.40D-04
 Range of M.O.s used for correlation:     8   142
 NBasis=   142 NAE=    15 NBE=    15 NFC=     7 NFV=     0
 NROrb=    135 NOA=     8 NOB=     8 NVA=   127 NVB=   127

 **** Warning!!: The largest alpha MO coefficient is  0.19768528D+02

 Leave Link  801 at Wed May  4 19:05:54 2022, MaxMem=   754974720 cpu:               0.4 elap:               0.1
 (Enter /opt/cluster/programs/g16-c.01/g16/l906.exe)
 Frozen-core derivative calculation, NFC=   7 NFV=   0.
 FulOut=F Deriv=T AODrv=T NAtomX=     3
   MMem=          74  MDisk=           8 MDiskD=           8
  W3Min=      359970 MinDsk=      723803 NBas6D=         169
 NBas2D=       14809    NTT=       14365    LW2=     3500000
    MDV=   754677657 MDiskM=       22268 NBas2p=       14795
 Fully direct method using O(ONN) memory.
 IMap=   1   2   3   4   5   6   7   8   9  10  11  12  13  14  15
 JobTyp=1 Pass  1:  I=   8 to  15 NPSUse=  4 ParTrn=T ParDer=T DoDerP=T.
 Spin components of T(2) and E(2):
     alpha-alpha T2 =       0.2928988966D-01 E2=     -0.6964879675D-01
     alpha-beta  T2 =       0.1539882317D+00 E2=     -0.3961953330D+00
     beta-beta   T2 =       0.2928988966D-01 E2=     -0.6964879675D-01
 The integrals were generated   1 times.
 ANorm=    0.1101166659D+01
 E2 =    -0.5354929265D+00 EUMP2 =    -0.49046925069631D+03
 Leave Link  906 at Wed May  4 19:06:03 2022, MaxMem=   754974720 cpu:              33.9 elap:               8.5
 (Enter /opt/cluster/programs/g16-c.01/g16/l1002.exe)
 Minotr:  Closed shell wavefunction.
          Computing MP2/KS-MP2 derivatives.
          Using Z-Vector for PSCF gradient.
          Skipping F1 and S1 gradient terms here.
          IDoAtm=111
          Frozen-core window.
          Direct CPHF calculation.
          Differentiating once with respect to electric field.
                with respect to dipole field.
          Differentiating once with respect to nuclear coordinates.
          Using symmetry in CPHF.
          Requested convergence is 1.0D-10 RMS, and 1.0D-09 maximum.
          NewPWx=F KeepS1=T KeepF1=T KeepIn=T MapXYZ=F SortEE=F KeepMc=T.
 Keep R1 ints in memory in symmetry-blocked form, NReq=77616884.
 FoFCou: FMM=F IPFlag=           0 FMFlag=           0 FMFlg1=           0
         NFxFlg=           0 DoJE=F BraDBF=F KetDBF=F FulRan=T
         wScrn=  0.000000 ICntrl=       600 IOpCl=  0 I1Cent=           0 NGrid=           0
         NMat0=    1 NMatS0=  10153 NMatT0=    0 NMatD0=    1 NMtDS0=    0 NMtDT0=    0
 Petite list used in FoFCou.
          MDV=     754974720 using IRadAn=       5.
          Solving linear equations separately, MaxMat=       0.
          There are     1 degrees of freedom in the 1st order CPHF.  IDoFFX=0 NUNeed=     1.
 LinEq1:  Iter=  0 NonCon=     1 RMS=5.05D-03 Max=8.38D-02 NDo=     1
 AX will form     1 AO Fock derivatives at one time.
 LinEq1:  Iter=  1 NonCon=     1 RMS=1.74D-03 Max=1.99D-02 NDo=     1
 LinEq1:  Iter=  2 NonCon=     1 RMS=6.18D-04 Max=7.10D-03 NDo=     1
 LinEq1:  Iter=  3 NonCon=     1 RMS=3.37D-04 Max=4.78D-03 NDo=     1
 LinEq1:  Iter=  4 NonCon=     1 RMS=1.51D-04 Max=2.90D-03 NDo=     1
 LinEq1:  Iter=  5 NonCon=     1 RMS=5.30D-05 Max=6.79D-04 NDo=     1
 LinEq1:  Iter=  6 NonCon=     1 RMS=1.72D-05 Max=2.53D-04 NDo=     1
 LinEq1:  Iter=  7 NonCon=     1 RMS=4.25D-06 Max=4.49D-05 NDo=     1
 LinEq1:  Iter=  8 NonCon=     1 RMS=8.43D-07 Max=7.49D-06 NDo=     1
 LinEq1:  Iter=  9 NonCon=     1 RMS=2.28D-07 Max=2.79D-06 NDo=     1
 LinEq1:  Iter= 10 NonCon=     1 RMS=5.35D-08 Max=6.36D-07 NDo=     1
 LinEq1:  Iter= 11 NonCon=     1 RMS=1.18D-08 Max=1.17D-07 NDo=     1
 LinEq1:  Iter= 12 NonCon=     1 RMS=2.29D-09 Max=2.17D-08 NDo=     1
 LinEq1:  Iter= 13 NonCon=     1 RMS=3.39D-10 Max=3.07D-09 NDo=     1
 LinEq1:  Iter= 14 NonCon=     0 RMS=5.26D-11 Max=5.68D-10 NDo=     1
 Linear equations converged to 1.000D-10 1.000D-09 after    14 iterations.
 End of Minotr F.D. properties file   721 does not exist.
 End of Minotr F.D. properties file   722 does not exist.
 End of Minotr F.D. properties file   788 does not exist.
 Leave Link 1002 at Wed May  4 19:06:06 2022, MaxMem=   754974720 cpu:              13.4 elap:               3.6
 (Enter /opt/cluster/programs/g16-c.01/g16/l701.exe)
 ... and contract with generalized density number  2.
 Compute integral first derivatives.
 Leave Link  701 at Wed May  4 19:06:07 2022, MaxMem=   754974720 cpu:               2.6 elap:               0.9
 (Enter /opt/cluster/programs/g16-c.01/g16/l702.exe)
 L702 exits ... SP integral derivatives will be done elsewhere.
 Leave Link  702 at Wed May  4 19:06:08 2022, MaxMem=   754974720 cpu:               0.1 elap:               0.0
 (Enter /opt/cluster/programs/g16-c.01/g16/l703.exe)
 Integral derivatives from FoFJK, PRISM(SPDF).
 Compute integral first derivatives, UseDBF=F ICtDFT=           0.
 Calling FoFJK, ICntrl=  10002127 FMM=F ISym2X=1 I1Cent= 0 IOpClX= 0 NMat=1 NMatS=1 NMatT=0.
 FoFJK:  IHMeth= 1 ICntrl=10002127 DoSepK=F KAlg= 0 I1Cent=           0 FoldK=F
 IRaf=         0 NMat=       1 IRICut=       1 DoRegI=T DoRafI=F ISym2E= 1 IDoP0=0 IntGTp=1.
 FoFCou: FMM=F IPFlag=           0 FMFlag=      100000 FMFlg1=         800
         NFxFlg=           0 DoJE=F BraDBF=F KetDBF=F FulRan=T
         wScrn=  0.000000 ICntrl=  10002127 IOpCl=  0 I1Cent=           0 NGrid=           0
         NMat0=    1 NMatS0=      1 NMatT0=    0 NMatD0=    1 NMtDS0=    0 NMtDT0=    0
 Petite list used in FoFCou.
 Leave Link  703 at Wed May  4 19:06:12 2022, MaxMem=   754974720 cpu:              17.1 elap:               4.3
 (Enter /opt/cluster/programs/g16-c.01/g16/l716.exe)
 Dipole        =-1.76910064D-01-4.85715754D-01 1.36995958D-30
 ***** Axes restored to original set *****
 -------------------------------------------------------------------
 Center     Atomic                   Forces (Hartrees/Bohr)
 Number     Number              X              Y              Z
 -------------------------------------------------------------------
      1        7          -0.019851409   -0.000000000   -0.000211272
      2        6           0.032754133    0.000000000   -0.005848898
      3       16          -0.012902725   -0.000000000    0.006060169
 -------------------------------------------------------------------
 Cartesian Forces:  Max     0.032754133 RMS     0.013761346
 Leave Link  716 at Wed May  4 19:06:12 2022, MaxMem=   754974720 cpu:               0.2 elap:               0.0
 (Enter /opt/cluster/programs/g16-c.01/g16/l103.exe)

 GradGradGradGradGradGradGradGradGradGradGradGradGradGradGradGradGradGrad
 Berny optimization.
 Using GEDIIS/GDIIS optimizer.
 FormGI is forming the generalized inverse of G from B-inverse, IUseBI=4.
 Internal  Forces:  Max     0.044826322 RMS     0.025887676
 Search for a local minimum.
 Step number   2 out of a maximum of   20
 All quantities printed in internal units (Hartrees-Bohrs-Radians)
 RMS Force = .74704D-03 SwitMx=.10000D-02 MixMth= 2
 Mixed Optimization -- En-DIIS/RFO-DIIS
 Update second derivatives using D2CorX and points    1    2
 DE= -6.15D-05 DEPred=-5.40D-05 R= 1.14D+00
 TightC=F SS=  1.41D+00  RLast= 1.50D-02 DXNew= 5.0454D-01 4.4897D-02
 Trust test= 1.14D+00 RLast= 1.50D-02 DXMaxT set to 3.00D-01
 The second derivative matrix:
                          R1        R2        A1
           R1           1.10816
           R2          -0.02176   0.34471
           A1           0.03398   0.03194   0.25413
 ITU=  1  0
 Use linear search instead of GDIIS.
     Eigenvalues ---    0.34409   1.108781000.00000
 RFO step:  Lambda=-5.33892050D-07 EMin= 3.44089260D-01
 Quartic linear search produced a step of  0.17338.
 Iteration  1 RMS(Cart)=  0.00150744 RMS(Int)=  0.00000003
 Iteration  2 RMS(Cart)=  0.00000003 RMS(Int)=  0.00000000
 Iteration  1 RMS(Cart)=  0.00000000 RMS(Int)=  0.00000000
 ITry= 1 IFail=0 DXMaxC= 2.04D-03 DCOld= 1.00D+10 DXMaxT= 3.00D-01 DXLimC= 3.00D+00 Rises=F
 ClnCor:  largest displacement from symmetrization is 1.82D-15 for atom     1.
 Variable       Old X    -DE/DX   Delta X   Delta X   Delta X     New X
                                 (Linear)    (Quad)   (Total)
    R1        2.25809   0.00021   0.00084  -0.00059   0.00025   2.25834
    R2        3.15293   0.00104   0.00245   0.00063   0.00308   3.15601
    A1        2.77507   0.04483   0.00000   0.00000   0.00000   2.77507
         Item               Value     Threshold  Converged?
 Maximum Force            0.001036     0.000450     NO 
 RMS     Force            0.000747     0.000300     NO 
 Maximum Displacement     0.002040     0.001800     NO 
 RMS     Displacement     0.001507     0.001200     NO 
 Predicted change in Energy=-1.589159D-06
 Lowest energy point so far.  Saving SCF results.
 GradGradGradGradGradGradGradGradGradGradGradGradGradGradGradGradGradGrad

 Leave Link  103 at Wed May  4 19:06:12 2022, MaxMem=   754974720 cpu:               0.0 elap:               0.0
 (Enter /opt/cluster/programs/g16-c.01/g16/l202.exe)
                          Input orientation:                          
 ---------------------------------------------------------------------
 Center     Atomic      Atomic             Coordinates (Angstroms)
 Number     Number       Type             X           Y           Z
 ---------------------------------------------------------------------
      1          7           0       -0.000841    0.000000   -1.825624
      2          6           0       -0.001067   -0.000000   -0.630559
      3         16           0        0.597145    0.000000    0.928715
 ---------------------------------------------------------------------
                    Distance matrix (angstroms):
                    1          2          3
     1  N    0.000000
     2  C    1.195064   0.000000
     3  S    2.818505   1.670088   0.000000
 Stoichiometry    CNS(1-)
 Framework group  CS[SG(CNS)]
 Deg. of freedom     3
 Full point group                 CS      NOp   2
 RotChk:  IX=0 Diff= 3.39D-04
 Largest Abelian subgroup         CS      NOp   2
 Largest concise Abelian subgroup C1      NOp   1
                         Standard orientation:                         
 ---------------------------------------------------------------------
 Center     Atomic      Atomic             Coordinates (Angstroms)
 Number     Number       Type             X           Y           Z
 ---------------------------------------------------------------------
      1          7           0        0.597671    1.695142    0.000000
      2          6           0        0.000000    0.660266   -0.000000
      3         16           0       -0.261481   -0.989225   -0.000000
 ---------------------------------------------------------------------
 Rotational constants (GHZ):         888.7974639           6.0614779           6.0204194
 Leave Link  202 at Wed May  4 19:06:12 2022, MaxMem=   754974720 cpu:               0.2 elap:               0.1
 (Enter /opt/cluster/programs/g16-c.01/g16/l301.exe)
 Standard basis: Aug-CC-pVTZ (5D, 7F)
 Ernie: Thresh=  0.10000D-02 Tol=  0.10000D-05 Strict=F.
 Ernie:  19 primitive shells out of 124 were deleted.
 There are   114 symmetry adapted cartesian basis functions of A'  symmetry.
 There are    55 symmetry adapted cartesian basis functions of A"  symmetry.
 There are    93 symmetry adapted basis functions of A'  symmetry.
 There are    49 symmetry adapted basis functions of A"  symmetry.
   142 basis functions,   258 primitive gaussians,   169 cartesian basis functions
    15 alpha electrons       15 beta electrons
       nuclear repulsion energy        70.0439829097 Hartrees.
 IExCor=    0 DFT=F Ex=HF Corr=None ExCW=0 ScaHFX=  1.000000
 ScaDFX=  1.000000  1.000000  1.000000  1.000000 ScalE2=  1.000000  1.000000
 IRadAn=      5 IRanWt=     -1 IRanGd=            0 ICorTp=0 IEmpDi=  4
 NAtoms=    3 NActive=    3 NUniq=    3 SFac= 1.00D+00 NAtFMM=   60 NAOKFM=F Big=F
 Integral buffers will be    131072 words long.
 Raffenetti 1 integral format.
 Two-electron integral symmetry is turned on.
 Leave Link  301 at Wed May  4 19:06:12 2022, MaxMem=   754974720 cpu:               0.2 elap:               0.1
 (Enter /opt/cluster/programs/g16-c.01/g16/l302.exe)
 NPDir=0 NMtPBC=     1 NCelOv=     1 NCel=       1 NClECP=     1 NCelD=      1
         NCelK=      1 NCelE2=     1 NClLst=     1 CellRange=     0.0.
 One-electron integrals computed using PRISM.
 One-electron integral symmetry used in STVInt
 NBasis=   142 RedAO= T EigKep=  1.05D-04  NBF=    93    49
 NBsUse=   142 1.00D-06 EigRej= -1.00D+00 NBFU=    93    49
 Leave Link  302 at Wed May  4 19:06:12 2022, MaxMem=   754974720 cpu:               0.6 elap:               0.2
 (Enter /opt/cluster/programs/g16-c.01/g16/l303.exe)
 DipDrv:  MaxL=1.
 Leave Link  303 at Wed May  4 19:06:12 2022, MaxMem=   754974720 cpu:               0.2 elap:               0.0
 (Enter /opt/cluster/programs/g16-c.01/g16/l401.exe)
 Initial guess from the checkpoint file:  "gaussian_5_scn.chk"
 B after Tr=     0.000000   -0.000000    0.000000
         Rot=    1.000000   -0.000000   -0.000000   -0.000123 Ang=  -0.01 deg.
 Guess basis will be translated and rotated to current coordinates.
 JPrj=2 DoOrth=T DoCkMO=T.
 Initial guess orbital symmetries:
       Occupied  (A') (A') (A') (A') (A') (A") (A') (A') (A') (A')
                 (A') (A") (A') (A") (A')
       Virtual   (A') (A') (A') (A") (A') (A") (A') (A") (A') (A')
                 (A') (A') (A") (A') (A') (A") (A') (A') (A") (A')
                 (A") (A') (A') (A") (A') (A') (A") (A') (A') (A")
                 (A') (A') (A") (A') (A") (A') (A") (A') (A') (A")
                 (A') (A") (A') (A') (A") (A') (A') (A") (A') (A")
                 (A') (A') (A") (A') (A') (A") (A') (A") (A') (A')
                 (A") (A') (A') (A") (A') (A") (A') (A") (A') (A')
                 (A') (A") (A') (A") (A') (A') (A") (A') (A") (A')
                 (A") (A') (A') (A") (A') (A") (A') (A") (A') (A')
                 (A') (A") (A') (A') (A") (A') (A") (A') (A") (A')
                 (A') (A") (A') (A") (A') (A') (A") (A') (A') (A")
                 (A') (A') (A") (A') (A') (A") (A") (A') (A') (A")
                 (A') (A") (A') (A') (A') (A') (A')
 The electronic state of the initial guess is 1-A'.
 Leave Link  401 at Wed May  4 19:06:13 2022, MaxMem=   754974720 cpu:               1.6 elap:               0.5
 (Enter /opt/cluster/programs/g16-c.01/g16/l502.exe)
 Keep R1 ints in memory in symmetry-blocked form, NReq=77616006.
 FoFCou: FMM=F IPFlag=           0 FMFlag=           0 FMFlg1=           0
         NFxFlg=           0 DoJE=F BraDBF=F KetDBF=F FulRan=T
         wScrn=  0.000000 ICntrl=       600 IOpCl=  0 I1Cent=           0 NGrid=           0
         NMat0=    1 NMatS0=  10153 NMatT0=    0 NMatD0=    1 NMtDS0=    0 NMtDT0=    0
 Petite list used in FoFCou.
 Closed shell SCF:
 Using DIIS extrapolation, IDIIS=  1040.
 NGot=   754974720 LenX=   728846748 LenY=   728817746
 Requested convergence on RMS density matrix=1.00D-08 within 200 cycles.
 Requested convergence on MAX density matrix=1.00D-06.
 Requested convergence on             energy=1.00D-06.
 No special actions if energy rises.

 Cycle   1  Pass 1  IDiag  1:
 E= -489.933756594146    
 DIIS: error= 7.25D-05 at cycle   1 NSaved=   1.
 NSaved= 1 IEnMin= 1 EnMin= -489.933756594146     IErMin= 1 ErrMin= 7.25D-05
 ErrMax= 7.25D-05  0.00D+00 EMaxC= 1.00D-01 BMatC= 6.13D-07 BMatP= 6.13D-07
 IDIUse=1 WtCom= 1.00D+00 WtEn= 0.00D+00
 Coeff-Com:  0.100D+01
 Coeff:      0.100D+01
 Gap=     0.310 Goal=   None    Shift=    0.000
 RMSDP=7.67D-06 MaxDP=1.74D-04              OVMax= 2.71D-04

 Cycle   2  Pass 1  IDiag  1:
 E= -489.933757399993     Delta-E=       -0.000000805847 Rises=F Damp=F
 DIIS: error= 4.05D-05 at cycle   2 NSaved=   2.
 NSaved= 2 IEnMin= 2 EnMin= -489.933757399993     IErMin= 2 ErrMin= 4.05D-05
 ErrMax= 4.05D-05  0.00D+00 EMaxC= 1.00D-01 BMatC= 9.02D-08 BMatP= 6.13D-07
 IDIUse=1 WtCom= 1.00D+00 WtEn= 0.00D+00
 Coeff-Com:  0.116D+00 0.884D+00
 Coeff:      0.116D+00 0.884D+00
 Gap=     0.310 Goal=   None    Shift=    0.000
 RMSDP=2.60D-06 MaxDP=6.69D-05 DE=-8.06D-07 OVMax= 1.42D-04

 Cycle   3  Pass 1  IDiag  1:
 E= -489.933757506685     Delta-E=       -0.000000106692 Rises=F Damp=F
 DIIS: error= 2.54D-05 at cycle   3 NSaved=   3.
 NSaved= 3 IEnMin= 3 EnMin= -489.933757506685     IErMin= 3 ErrMin= 2.54D-05
 ErrMax= 2.54D-05  0.00D+00 EMaxC= 1.00D-01 BMatC= 3.18D-08 BMatP= 9.02D-08
 IDIUse=1 WtCom= 1.00D+00 WtEn= 0.00D+00
 Coeff-Com: -0.893D-01 0.320D+00 0.769D+00
 Coeff:     -0.893D-01 0.320D+00 0.769D+00
 Gap=     0.310 Goal=   None    Shift=    0.000
 RMSDP=9.29D-07 MaxDP=2.09D-05 DE=-1.07D-07 OVMax= 7.13D-05

 Cycle   4  Pass 1  IDiag  1:
 E= -489.933757546745     Delta-E=       -0.000000040059 Rises=F Damp=F
 DIIS: error= 7.64D-06 at cycle   4 NSaved=   4.
 NSaved= 4 IEnMin= 4 EnMin= -489.933757546745     IErMin= 4 ErrMin= 7.64D-06
 ErrMax= 7.64D-06  0.00D+00 EMaxC= 1.00D-01 BMatC= 2.56D-09 BMatP= 3.18D-08
 IDIUse=1 WtCom= 1.00D+00 WtEn= 0.00D+00
 Coeff-Com: -0.251D-01-0.331D-01 0.149D+00 0.910D+00
 Coeff:     -0.251D-01-0.331D-01 0.149D+00 0.910D+00
 Gap=     0.310 Goal=   None    Shift=    0.000
 RMSDP=4.88D-07 MaxDP=9.50D-06 DE=-4.01D-08 OVMax= 3.56D-05

 Cycle   5  Pass 1  IDiag  1:
 E= -489.933757552475     Delta-E=       -0.000000005730 Rises=F Damp=F
 DIIS: error= 3.35D-06 at cycle   5 NSaved=   5.
 NSaved= 5 IEnMin= 5 EnMin= -489.933757552475     IErMin= 5 ErrMin= 3.35D-06
 ErrMax= 3.35D-06  0.00D+00 EMaxC= 1.00D-01 BMatC= 4.99D-10 BMatP= 2.56D-09
 IDIUse=1 WtCom= 1.00D+00 WtEn= 0.00D+00
 Coeff-Com:  0.133D-01-0.643D-01-0.124D+00 0.146D+00 0.103D+01
 Coeff:      0.133D-01-0.643D-01-0.124D+00 0.146D+00 0.103D+01
 Gap=     0.310 Goal=   None    Shift=    0.000
 RMSDP=2.87D-07 MaxDP=8.59D-06 DE=-5.73D-09 OVMax= 1.91D-05

 Cycle   6  Pass 1  IDiag  1:
 E= -489.933757553807     Delta-E=       -0.000000001332 Rises=F Damp=F
 DIIS: error= 7.13D-07 at cycle   6 NSaved=   6.
 NSaved= 6 IEnMin= 6 EnMin= -489.933757553807     IErMin= 6 ErrMin= 7.13D-07
 ErrMax= 7.13D-07  0.00D+00 EMaxC= 1.00D-01 BMatC= 3.85D-11 BMatP= 4.99D-10
 IDIUse=1 WtCom= 1.00D+00 WtEn= 0.00D+00
 Coeff-Com:  0.248D-02 0.832D-02-0.198D-01-0.988D-01-0.544D-01 0.116D+01
 Coeff:      0.248D-02 0.832D-02-0.198D-01-0.988D-01-0.544D-01 0.116D+01
 Gap=     0.310 Goal=   None    Shift=    0.000
 RMSDP=9.69D-08 MaxDP=2.46D-06 DE=-1.33D-09 OVMax= 6.00D-06

 Cycle   7  Pass 1  IDiag  1:
 E= -489.933757553942     Delta-E=       -0.000000000135 Rises=F Damp=F
 DIIS: error= 3.27D-07 at cycle   7 NSaved=   7.
 NSaved= 7 IEnMin= 7 EnMin= -489.933757553942     IErMin= 7 ErrMin= 3.27D-07
 ErrMax= 3.27D-07  0.00D+00 EMaxC= 1.00D-01 BMatC= 4.12D-12 BMatP= 3.85D-11
 IDIUse=1 WtCom= 1.00D+00 WtEn= 0.00D+00
 Coeff-Com: -0.116D-02 0.800D-02 0.762D-02-0.178D-01-0.118D+00 0.112D+00
 Coeff-Com:  0.101D+01
 Coeff:     -0.116D-02 0.800D-02 0.762D-02-0.178D-01-0.118D+00 0.112D+00
 Coeff:      0.101D+01
 Gap=     0.310 Goal=   None    Shift=    0.000
 RMSDP=2.92D-08 MaxDP=9.70D-07 DE=-1.35D-10 OVMax= 1.92D-06

 Cycle   8  Pass 1  IDiag  1:
 E= -489.933757553951     Delta-E=       -0.000000000010 Rises=F Damp=F
 DIIS: error= 4.08D-08 at cycle   8 NSaved=   8.
 NSaved= 8 IEnMin= 8 EnMin= -489.933757553951     IErMin= 8 ErrMin= 4.08D-08
 ErrMax= 4.08D-08  0.00D+00 EMaxC= 1.00D-01 BMatC= 1.67D-13 BMatP= 4.12D-12
 IDIUse=1 WtCom= 1.00D+00 WtEn= 0.00D+00
 Coeff-Com:  0.296D-04-0.133D-02-0.413D-04 0.862D-02 0.172D-01-0.795D-01
 Coeff-Com: -0.169D+00 0.122D+01
 Coeff:      0.296D-04-0.133D-02-0.413D-04 0.862D-02 0.172D-01-0.795D-01
 Coeff:     -0.169D+00 0.122D+01
 Gap=     0.310 Goal=   None    Shift=    0.000
 RMSDP=1.01D-08 MaxDP=4.02D-07 DE=-9.55D-12 OVMax= 4.20D-07

 Cycle   9  Pass 1  IDiag  1:
 E= -489.933757553951     Delta-E=        0.000000000000 Rises=F Damp=F
 DIIS: error= 1.47D-08 at cycle   9 NSaved=   9.
 NSaved= 9 IEnMin= 8 EnMin= -489.933757553951     IErMin= 9 ErrMin= 1.47D-08
 ErrMax= 1.47D-08  0.00D+00 EMaxC= 1.00D-01 BMatC= 1.47D-14 BMatP= 1.67D-13
 IDIUse=1 WtCom= 1.00D+00 WtEn= 0.00D+00
 Coeff-Com:  0.816D-04-0.273D-03-0.641D-03-0.807D-03 0.422D-02 0.137D-01
 Coeff-Com: -0.299D-01-0.323D+00 0.134D+01
 Coeff:      0.816D-04-0.273D-03-0.641D-03-0.807D-03 0.422D-02 0.137D-01
 Coeff:     -0.299D-01-0.323D+00 0.134D+01
 Gap=     0.310 Goal=   None    Shift=    0.000
 RMSDP=2.95D-09 MaxDP=1.17D-07 DE= 2.27D-13 OVMax= 1.33D-07

 SCF Done:  E(RHF) =  -489.933757554     A.U. after    9 cycles
            NFock=  9  Conv=0.30D-08     -V/T= 2.0005
 KE= 4.896683448861D+02 PE=-1.310518203546D+03 EE= 2.608721181960D+02
 Leave Link  502 at Wed May  4 19:06:16 2022, MaxMem=   754974720 cpu:              12.3 elap:               3.3
 (Enter /opt/cluster/programs/g16-c.01/g16/l801.exe)
 ExpMin= 3.51D-02 ExpMax= 3.74D+05 ExpMxC= 1.18D+03 IAcc=3 IRadAn=         5 AccDes= 0.00D+00
 HarFok:  IExCor=  205 AccDes= 0.00D+00 IRadAn=         5 IDoV=-2 UseB2=F ITyADJ=14
 ICtDFT= 12500011 ScaDFX=  1.000000  1.000000  1.000000  1.000000
 Largest valence mixing into a core orbital is  5.37D-04
 Largest core mixing into a valence orbital is  1.40D-04
 Range of M.O.s used for correlation:     8   142
 NBasis=   142 NAE=    15 NBE=    15 NFC=     7 NFV=     0
 NROrb=    135 NOA=     8 NOB=     8 NVA=   127 NVB=   127

 **** Warning!!: The largest alpha MO coefficient is  0.19742686D+02

 Leave Link  801 at Wed May  4 19:06:16 2022, MaxMem=   754974720 cpu:               0.4 elap:               0.1
 (Enter /opt/cluster/programs/g16-c.01/g16/l906.exe)
 Frozen-core derivative calculation, NFC=   7 NFV=   0.
 FulOut=F Deriv=T AODrv=T NAtomX=     3
   MMem=          74  MDisk=           8 MDiskD=           8
  W3Min=      359970 MinDsk=      723803 NBas6D=         169
 NBas2D=       14809    NTT=       14365    LW2=     3500000
    MDV=   754677671 MDiskM=       22268 NBas2p=       14795
 Fully direct method using O(ONN) memory.
 IMap=   1   2   3   4   5   6   7   8   9  10  11  12  13  14  15
 JobTyp=1 Pass  1:  I=   8 to  15 NPSUse=  4 ParTrn=T ParDer=T DoDerP=T.
 Spin components of T(2) and E(2):
     alpha-alpha T2 =       0.2929215823D-01 E2=     -0.6964050929D-01
     alpha-beta  T2 =       0.1540297362D+00 E2=     -0.3962138076D+00
     beta-beta   T2 =       0.2929215823D-01 E2=     -0.6964050929D-01
 The integrals were generated   1 times.
 ANorm=    0.1101187565D+01
 E2 =    -0.5354948262D+00 EUMP2 =    -0.49046925238018D+03
 Leave Link  906 at Wed May  4 19:06:25 2022, MaxMem=   754974720 cpu:              34.2 elap:               8.6
 (Enter /opt/cluster/programs/g16-c.01/g16/l1002.exe)
 Minotr:  Closed shell wavefunction.
          Computing MP2/KS-MP2 derivatives.
          Using Z-Vector for PSCF gradient.
          Skipping F1 and S1 gradient terms here.
          IDoAtm=111
          Frozen-core window.
          Direct CPHF calculation.
          Differentiating once with respect to electric field.
                with respect to dipole field.
          Differentiating once with respect to nuclear coordinates.
          Using symmetry in CPHF.
          Requested convergence is 1.0D-10 RMS, and 1.0D-09 maximum.
          NewPWx=F KeepS1=T KeepF1=T KeepIn=T MapXYZ=F SortEE=F KeepMc=T.
 Keep R1 ints in memory in symmetry-blocked form, NReq=77616884.
 FoFCou: FMM=F IPFlag=           0 FMFlag=           0 FMFlg1=           0
         NFxFlg=           0 DoJE=F BraDBF=F KetDBF=F FulRan=T
         wScrn=  0.000000 ICntrl=       600 IOpCl=  0 I1Cent=           0 NGrid=           0
         NMat0=    1 NMatS0=  10153 NMatT0=    0 NMatD0=    1 NMtDS0=    0 NMtDT0=    0
 Petite list used in FoFCou.
          MDV=     754974720 using IRadAn=       5.
          Solving linear equations separately, MaxMat=       0.
          There are     1 degrees of freedom in the 1st order CPHF.  IDoFFX=0 NUNeed=     1.
 LinEq1:  Iter=  0 NonCon=     1 RMS=5.05D-03 Max=8.37D-02 NDo=     1
 AX will form     1 AO Fock derivatives at one time.
 LinEq1:  Iter=  1 NonCon=     1 RMS=1.74D-03 Max=1.98D-02 NDo=     1
 LinEq1:  Iter=  2 NonCon=     1 RMS=6.19D-04 Max=7.11D-03 NDo=     1
 LinEq1:  Iter=  3 NonCon=     1 RMS=3.38D-04 Max=4.78D-03 NDo=     1
 LinEq1:  Iter=  4 NonCon=     1 RMS=1.51D-04 Max=2.90D-03 NDo=     1
 LinEq1:  Iter=  5 NonCon=     1 RMS=5.30D-05 Max=6.80D-04 NDo=     1
 LinEq1:  Iter=  6 NonCon=     1 RMS=1.73D-05 Max=2.53D-04 NDo=     1
 LinEq1:  Iter=  7 NonCon=     1 RMS=4.26D-06 Max=4.50D-05 NDo=     1
 LinEq1:  Iter=  8 NonCon=     1 RMS=8.45D-07 Max=7.51D-06 NDo=     1
 LinEq1:  Iter=  9 NonCon=     1 RMS=2.28D-07 Max=2.81D-06 NDo=     1
 LinEq1:  Iter= 10 NonCon=     1 RMS=5.36D-08 Max=6.38D-07 NDo=     1
 LinEq1:  Iter= 11 NonCon=     1 RMS=1.18D-08 Max=1.17D-07 NDo=     1
 LinEq1:  Iter= 12 NonCon=     1 RMS=2.30D-09 Max=2.18D-08 NDo=     1
 LinEq1:  Iter= 13 NonCon=     1 RMS=3.39D-10 Max=3.08D-09 NDo=     1
 LinEq1:  Iter= 14 NonCon=     0 RMS=5.25D-11 Max=5.67D-10 NDo=     1
 Linear equations converged to 1.000D-10 1.000D-09 after    14 iterations.
 End of Minotr F.D. properties file   721 does not exist.
 End of Minotr F.D. properties file   722 does not exist.
 End of Minotr F.D. properties file   788 does not exist.
 Leave Link 1002 at Wed May  4 19:06:29 2022, MaxMem=   754974720 cpu:              13.3 elap:               3.6
 (Enter /opt/cluster/programs/g16-c.01/g16/l701.exe)
 ... and contract with generalized density number  2.
 Compute integral first derivatives.
 Leave Link  701 at Wed May  4 19:06:29 2022, MaxMem=   754974720 cpu:               0.7 elap:               0.2
 (Enter /opt/cluster/programs/g16-c.01/g16/l702.exe)
 L702 exits ... SP integral derivatives will be done elsewhere.
 Leave Link  702 at Wed May  4 19:06:29 2022, MaxMem=   754974720 cpu:               0.1 elap:               0.0
 (Enter /opt/cluster/programs/g16-c.01/g16/l703.exe)
 Integral derivatives from FoFJK, PRISM(SPDF).
 Compute integral first derivatives, UseDBF=F ICtDFT=           0.
 Calling FoFJK, ICntrl=  10002127 FMM=F ISym2X=1 I1Cent= 0 IOpClX= 0 NMat=1 NMatS=1 NMatT=0.
 FoFJK:  IHMeth= 1 ICntrl=10002127 DoSepK=F KAlg= 0 I1Cent=           0 FoldK=F
 IRaf=         0 NMat=       1 IRICut=       1 DoRegI=T DoRafI=F ISym2E= 1 IDoP0=0 IntGTp=1.
 FoFCou: FMM=F IPFlag=           0 FMFlag=      100000 FMFlg1=         800
         NFxFlg=           0 DoJE=F BraDBF=F KetDBF=F FulRan=T
         wScrn=  0.000000 ICntrl=  10002127 IOpCl=  0 I1Cent=           0 NGrid=           0
         NMat0=    1 NMatS0=      1 NMatT0=    0 NMatD0=    1 NMtDS0=    0 NMtDT0=    0
 Petite list used in FoFCou.
 Leave Link  703 at Wed May  4 19:06:33 2022, MaxMem=   754974720 cpu:              15.5 elap:               3.9
 (Enter /opt/cluster/programs/g16-c.01/g16/l716.exe)
 Dipole        =-1.76335307D-01-4.83939146D-01-3.84445883D-30
 ***** Axes restored to original set *****
 -------------------------------------------------------------------
 Center     Atomic                   Forces (Hartrees/Bohr)
 Number     Number              X              Y              Z
 -------------------------------------------------------------------
      1        7          -0.019799893   -0.000000000    0.000162032
      2        6           0.033006249    0.000000000   -0.005293594
      3       16          -0.013206356   -0.000000000    0.005131562
 -------------------------------------------------------------------
 Cartesian Forces:  Max     0.033006249 RMS     0.013785006
 Leave Link  716 at Wed May  4 19:06:33 2022, MaxMem=   754974720 cpu:               0.3 elap:               0.2
 (Enter /opt/cluster/programs/g16-c.01/g16/l103.exe)

 GradGradGradGradGradGradGradGradGradGradGradGradGradGradGradGradGradGrad
 Berny optimization.
 Using GEDIIS/GDIIS optimizer.
 FormGI is forming the generalized inverse of G from B-inverse, IUseBI=4.
 Internal  Forces:  Max     0.044714893 RMS     0.025816357
 Search for a local minimum.
 Step number   3 out of a maximum of   20
 All quantities printed in internal units (Hartrees-Bohrs-Radians)
 RMS Force = .12482D-03 SwitMx=.10000D-02 MixMth= 2
 Mixed Optimization -- En-DIIS/RFO-DIIS
 Swapping is turned off.
 Update second derivatives using D2CorX and points    1    2    3
 DE= -1.68D-06 DEPred=-1.59D-06 R= 1.06D+00
 TightC=F SS=  1.41D+00  RLast= 3.09D-03 DXNew= 5.0454D-01 9.2703D-03
 Trust test= 1.06D+00 RLast= 3.09D-03 DXMaxT set to 3.00D-01
 The second derivative matrix:
                          R1        R2        A1
           R1           1.15097
           R2           0.02626   0.31444
           A1           0.04098   0.03279   0.25469
 ITU=  1  1  0
     Eigenvalues ---    0.31362   1.151801000.00000
 En-DIIS/RFO-DIIS/Sim-DIIS IScMMF=       -3 using points:     3    2
 RFO step:  Lambda=-2.03652981D-06.
 NNeg= 0 NGDIIS= 2 SimSw=  2.50D-03 Rises=F DC= -1.68D-06 SmlDif=  1.00D-05
 NRisDI= 0 DoIntr=F SqrtH=F CThrHd= 10.0 CDAdj=  3.0
 RMS Error=  0.1486386626D-03 NUsed= 2 OKEnD=F EnDIS=F
 InvSVX:  RCond= 2.39D-06 Info=           0 Equed=N FErr=  1.02D-15 BErr=  7.54D-17
 DidBck=F Rises=F RFO-DIIS coefs:    1.06226   -0.06226
 Iteration  1 RMS(Cart)=  0.00008754 RMS(Int)=  0.00000000
 Iteration  2 RMS(Cart)=  0.00000000 RMS(Int)=  0.00000000
 Iteration  1 RMS(Cart)=  0.00000000 RMS(Int)=  0.00000000
 ITry= 1 IFail=0 DXMaxC= 1.16D-04 DCOld= 1.00D+10 DXMaxT= 3.00D-01 DXLimC= 3.00D+00 Rises=F
 ClnCor:  largest displacement from symmetrization is 1.07D-15 for atom     1.
 Variable       Old X    -DE/DX   Delta X   Delta X   Delta X     New X
                                 (Linear)    (Quad)   (Total)
    R1        2.25834  -0.00017   0.00002  -0.00016  -0.00015   2.25820
    R2        3.15601   0.00006   0.00019   0.00001   0.00021   3.15621
    A1        2.77507   0.04471   0.00000   0.00000   0.00000   2.77507
         Item               Value     Threshold  Converged?
 Maximum Force            0.000166     0.000450     YES
 RMS     Force            0.000125     0.000300     YES
 Maximum Displacement     0.000116     0.001800     YES
 RMS     Displacement     0.000088     0.001200     YES
 Predicted change in Energy=-1.855409D-08
 Optimization completed.
    -- Stationary point found.
                           ----------------------------
                           !   Optimized Parameters   !
                           ! (Angstroms and Degrees)  !
 --------------------------                            --------------------------
 ! Name  Definition              Value          Derivative Info.                !
 --------------------------------------------------------------------------------
 ! R1    R(1,2)                  1.1951         -DE/DX =   -0.0002              !
 ! R2    R(2,3)                  1.6701         -DE/DX =    0.0001              !
 ! A1    A(1,2,3)              159.0            -DE/DX =    0.0447              !
 --------------------------------------------------------------------------------
 Lowest energy point so far.  Saving SCF results.
 Largest change from initial coordinates is atom    1       0.005 Angstoms.
 GradGradGradGradGradGradGradGradGradGradGradGradGradGradGradGradGradGrad

 Leave Link  103 at Wed May  4 19:06:33 2022, MaxMem=   754974720 cpu:               0.6 elap:               0.3
 (Enter /opt/cluster/programs/g16-c.01/g16/l202.exe)
                          Input orientation:                          
 ---------------------------------------------------------------------
 Center     Atomic      Atomic             Coordinates (Angstroms)
 Number     Number       Type             X           Y           Z
 ---------------------------------------------------------------------
      1          7           0       -0.000841    0.000000   -1.825624
      2          6           0       -0.001067   -0.000000   -0.630559
      3         16           0        0.597145    0.000000    0.928715
 ---------------------------------------------------------------------
                    Distance matrix (angstroms):
                    1          2          3
     1  N    0.000000
     2  C    1.195064   0.000000
     3  S    2.818505   1.670088   0.000000
 Stoichiometry    CNS(1-)
 Framework group  CS[SG(CNS)]
 Deg. of freedom     3
 Full point group                 CS      NOp   2
 RotChk:  IX=0 Diff= 1.57D-16
 Largest Abelian subgroup         CS      NOp   2
 Largest concise Abelian subgroup C1      NOp   1
                         Standard orientation:                         
 ---------------------------------------------------------------------
 Center     Atomic      Atomic             Coordinates (Angstroms)
 Number     Number       Type             X           Y           Z
 ---------------------------------------------------------------------
      1          7           0        0.597671    1.695142    0.000000
      2          6           0        0.000000    0.660266    0.000000
      3         16           0       -0.261481   -0.989225   -0.000000
 ---------------------------------------------------------------------
 Rotational constants (GHZ):         888.7974639           6.0614779           6.0204194
 Leave Link  202 at Wed May  4 19:06:33 2022, MaxMem=   754974720 cpu:               0.2 elap:               0.1
 (Enter /opt/cluster/programs/g16-c.01/g16/l601.exe)
 Copying SCF densities to generalized density rwf, IOpCl= 0 IROHF=0.

 **********************************************************************

            Population analysis using the SCF Density.

 **********************************************************************

 Orbital symmetries:
       Occupied  (A') (A') (A') (A') (A') (A") (A') (A') (A') (A')
                 (A') (A") (A') (A") (A')
       Virtual   (A') (A') (A') (A") (A') (A") (A') (A") (A') (A')
                 (A') (A') (A") (A') (A') (A") (A') (A') (A") (A')
                 (A") (A') (A') (A") (A') (A') (A") (A') (A") (A')
                 (A') (A') (A") (A') (A") (A') (A") (A') (A') (A")
                 (A') (A") (A') (A') (A") (A') (A') (A") (A') (A")
                 (A') (A') (A") (A') (A') (A") (A') (A") (A') (A')
                 (A") (A') (A') (A") (A') (A") (A') (A") (A') (A')
                 (A') (A") (A') (A") (A') (A') (A") (A') (A") (A')
                 (A") (A') (A') (A") (A') (A") (A') (A") (A') (A')
                 (A') (A") (A') (A') (A") (A') (A") (A') (A") (A')
                 (A') (A") (A') (A") (A') (A') (A") (A') (A') (A")
                 (A') (A') (A") (A') (A') (A") (A") (A') (A') (A")
                 (A') (A") (A') (A') (A') (A') (A')
 The electronic state is 1-A'.
 Alpha  occ. eigenvalues --  -91.73067 -15.36135 -11.10211  -8.73263  -6.41460
 Alpha  occ. eigenvalues --   -6.41212  -6.41208  -0.99709  -0.76912  -0.41433
 Alpha  occ. eigenvalues --   -0.33332  -0.29851  -0.29814  -0.13959  -0.13714
 Alpha virt. eigenvalues --    0.17315   0.19210   0.23125   0.23686   0.23926
 Alpha virt. eigenvalues --    0.24010   0.24833   0.29786   0.30218   0.31117
 Alpha virt. eigenvalues --    0.34985   0.38158   0.40084   0.41898   0.44461
 Alpha virt. eigenvalues --    0.44793   0.45460   0.54348   0.54401   0.54608
 Alpha virt. eigenvalues --    0.55127   0.57708   0.62350   0.63881   0.64351
 Alpha virt. eigenvalues --    0.71079   0.72488   0.75273   0.77448   0.77448
 Alpha virt. eigenvalues --    0.79534   0.81430   0.82494   0.88391   0.89818
 Alpha virt. eigenvalues --    0.92377   0.94929   0.95213   1.00394   1.02564
 Alpha virt. eigenvalues --    1.03173   1.06167   1.06177   1.13109   1.14556
 Alpha virt. eigenvalues --    1.14622   1.27807   1.28386   1.28925   1.29610
 Alpha virt. eigenvalues --    1.31987   1.33646   1.35842   1.37439   1.42519
 Alpha virt. eigenvalues --    1.44855   1.45750   1.57106   1.57727   1.57917
 Alpha virt. eigenvalues --    1.71526   1.72357   1.75330   1.83314   1.86407
 Alpha virt. eigenvalues --    1.89871   1.92128   2.02477   2.03447   2.07510
 Alpha virt. eigenvalues --    2.13939   2.15203   2.18945   2.28662   2.28843
 Alpha virt. eigenvalues --    2.31860   2.33133   2.39534   2.46894   2.47091
 Alpha virt. eigenvalues --    2.52780   2.54397   2.59809   2.59818   2.60400
 Alpha virt. eigenvalues --    2.61716   2.67300   2.68942   2.74669   2.82498
 Alpha virt. eigenvalues --    3.01019   3.02428   3.22289   3.31419   3.32643
 Alpha virt. eigenvalues --    3.61447   3.66742   3.66777   3.69779   3.69881
 Alpha virt. eigenvalues --    3.80486   3.86468   3.90879   3.94922   3.96347
 Alpha virt. eigenvalues --    4.12021   4.15033   4.27288   4.68797   4.72886
 Alpha virt. eigenvalues --    4.81287   4.92995   5.20238   5.20254   5.46664
 Alpha virt. eigenvalues --    5.47271   5.66964   5.67493   5.82492   5.86434
 Alpha virt. eigenvalues --    6.20011   6.30849   6.34228   6.39607   6.75548
 Alpha virt. eigenvalues --   11.87918  16.32687
          Condensed to atoms (all electrons):
               1          2          3
     1  N    6.843074   0.691955  -0.109957
     2  C    0.691955   5.053142   0.351872
     3  S   -0.109957   0.351872  16.236044
 Mulliken charges:
               1
     1  N   -0.425072
     2  C   -0.096970
     3  S   -0.477958
 Sum of Mulliken charges =  -1.00000
 Mulliken charges with hydrogens summed into heavy atoms:
               1
     1  N   -0.425072
     2  C   -0.096970
     3  S   -0.477958
 Electronic spatial extent (au):  <R**2>=            224.0423
 Charge=             -1.0000 electrons
 Dipole moment (field-independent basis, Debye):
    X=             -0.5658    Y=             -1.2670    Z=             -0.0000  Tot=              1.3876
 Quadrupole moment (field-independent basis, Debye-Ang):
   XX=            -30.6348   YY=            -39.7206   ZZ=            -29.3423
   XY=             -3.9730   XZ=             -0.0000   YZ=              0.0000
 Traceless Quadrupole moment (field-independent basis, Debye-Ang):
   XX=              2.5978   YY=             -6.4881   ZZ=              3.8903
   XY=             -3.9730   XZ=             -0.0000   YZ=              0.0000
 Octapole moment (field-independent basis, Debye-Ang**2):
  XXX=              1.9446  YYY=            -18.4543  ZZZ=             -0.0000  XYY=             -5.3457
  XXY=              0.4585  XXZ=             -0.0000  XZZ=              0.7536  YZZ=              1.9434
  YYZ=             -0.0000  XYZ=             -0.0000
 Hexadecapole moment (field-independent basis, Debye-Ang**3):
 XXXX=            -69.0065 YYYY=           -295.9720 ZZZZ=            -46.1155 XXXY=            -36.7241
 XXXZ=             -0.0000 YYYX=            -42.0869 YYYZ=              0.0000 ZZZX=             -0.0000
 ZZZY=             -0.0000 XXYY=            -62.1406 XXZZ=            -19.1407 YYZZ=            -55.5731
 XXYZ=             -0.0000 YYXZ=             -0.0000 ZZXY=            -11.9171
 N-N= 7.004398290972D+01 E-N=-1.310518203467D+03  KE= 4.896683448861D+02
 Symmetry A'   KE= 4.486677502994D+02
 Symmetry A"   KE= 4.100059458665D+01
 No NMR shielding tensors so no spin-rotation constants.
 Leave Link  601 at Wed May  4 19:06:35 2022, MaxMem=   754974720 cpu:               3.9 elap:               2.0
 (Enter /opt/cluster/programs/g16-c.01/g16/l9999.exe)
 Unable to Open any file for archive entry.
 1\1\GINC-NODE41\FOpt\RMP2-FC\Aug-CC-pVTZ\C1N1S1(1-)\TOEPFER\04-May-202
 2\0\\#P MP2/aug-cc-pVTZ scf(maxcycle=200) opt geom(AddGIC)\\Gaussian i
 nput\\-1,1\N,-0.0008409729,0.,-1.8256235524\C,-0.0010665004,0.,-0.6305
 591891\S,0.5971451697,0.,0.9287149553\\Version=ES64L-G16RevC.01\State=
 1-A'\HF=-489.9337576\MP2=-490.4692524\RMSD=2.951e-09\RMSF=1.379e-02\Di
 pole=0.0892313,0.,0.5072761\PG=CS [SG(C1N1S1)]\\@
 The archive entry for this job was punched.


 E PUR SI MUOVE    -- GALILEO GALILEI
 Job cpu time:       0 days  0 hours  4 minutes 24.6 seconds.
 Elapsed time:       0 days  0 hours  1 minutes 13.6 seconds.
 File lengths (MBytes):  RWF=     15 Int=      0 D2E=      0 Chk=      3 Scr=      1
 Normal termination of Gaussian 16 at Wed May  4 19:06:35 2022.
