 Entering Gaussian System, Link 0=/opt/cluster/programs/g16-c.01/g16/g16
 Input=/scratch/toepfer/jobs/tmp.5739915/gaussian_7_scn.com
 Output=/scratch/toepfer/jobs/tmp.5739915/gaussian_7_scn.out
 Initial command:
 /opt/cluster/programs/g16-c.01/g16/l1.exe "/scratch/toepfer/jobs/tmp.5739915/Gau-146310.inp" -scrdir="/scratch/toepfer/jobs/tmp.5739915/"
 Entering Link 1 = /opt/cluster/programs/g16-c.01/g16/l1.exe PID=    146311.
  
 Copyright (c) 1988-2019, Gaussian, Inc.  All Rights Reserved.
  
 This is part of the Gaussian(R) 16 program.  It is based on
 the Gaussian(R) 09 system (copyright 2009, Gaussian, Inc.),
 the Gaussian(R) 03 system (copyright 2003, Gaussian, Inc.),
 the Gaussian(R) 98 system (copyright 1998, Gaussian, Inc.),
 the Gaussian(R) 94 system (copyright 1995, Gaussian, Inc.),
 the Gaussian 92(TM) system (copyright 1992, Gaussian, Inc.),
 the Gaussian 90(TM) system (copyright 1990, Gaussian, Inc.),
 the Gaussian 88(TM) system (copyright 1988, Gaussian, Inc.),
 the Gaussian 86(TM) system (copyright 1986, Carnegie Mellon
 University), and the Gaussian 82(TM) system (copyright 1983,
 Carnegie Mellon University). Gaussian is a federally registered
 trademark of Gaussian, Inc.
  
 This software contains proprietary and confidential information,
 including trade secrets, belonging to Gaussian, Inc.
  
 This software is provided under written license and may be
 used, copied, transmitted, or stored only in accord with that
 written license.
  
 The following legend is applicable only to US Government
 contracts under FAR:
  
                    RESTRICTED RIGHTS LEGEND
  
 Use, reproduction and disclosure by the US Government is
 subject to restrictions as set forth in subparagraphs (a)
 and (c) of the Commercial Computer Software - Restricted
 Rights clause in FAR 52.227-19.
  
 Gaussian, Inc.
 340 Quinnipiac St., Bldg. 40, Wallingford CT 06492
  
  
 ---------------------------------------------------------------
 Warning -- This program may not be used in any manner that
 competes with the business of Gaussian, Inc. or will provide
 assistance to any competitor of Gaussian, Inc.  The licensee
 of this program is prohibited from giving any competitor of
 Gaussian, Inc. access to this program.  By using this program,
 the user acknowledges that Gaussian, Inc. is engaged in the
 business of creating and licensing software in the field of
 computational chemistry and represents and warrants to the
 licensee that it is not a competitor of Gaussian, Inc. and that
 it will not use this program in any manner prohibited above.
 ---------------------------------------------------------------
  

 Cite this work as:
 Gaussian 16, Revision C.01,
 M. J. Frisch, G. W. Trucks, H. B. Schlegel, G. E. Scuseria, 
 M. A. Robb, J. R. Cheeseman, G. Scalmani, V. Barone, 
 G. A. Petersson, H. Nakatsuji, X. Li, M. Caricato, A. V. Marenich, 
 J. Bloino, B. G. Janesko, R. Gomperts, B. Mennucci, H. P. Hratchian, 
 J. V. Ortiz, A. F. Izmaylov, J. L. Sonnenberg, D. Williams-Young, 
 F. Ding, F. Lipparini, F. Egidi, J. Goings, B. Peng, A. Petrone, 
 T. Henderson, D. Ranasinghe, V. G. Zakrzewski, J. Gao, N. Rega, 
 G. Zheng, W. Liang, M. Hada, M. Ehara, K. Toyota, R. Fukuda, 
 J. Hasegawa, M. Ishida, T. Nakajima, Y. Honda, O. Kitao, H. Nakai, 
 T. Vreven, K. Throssell, J. A. Montgomery, Jr., J. E. Peralta, 
 F. Ogliaro, M. J. Bearpark, J. J. Heyd, E. N. Brothers, K. N. Kudin, 
 V. N. Staroverov, T. A. Keith, R. Kobayashi, J. Normand, 
 K. Raghavachari, A. P. Rendell, J. C. Burant, S. S. Iyengar, 
 J. Tomasi, M. Cossi, J. M. Millam, M. Klene, C. Adamo, R. Cammi, 
 J. W. Ochterski, R. L. Martin, K. Morokuma, O. Farkas, 
 J. B. Foresman, and D. J. Fox, Gaussian, Inc., Wallingford CT, 2019.
 
 ******************************************
 Gaussian 16:  ES64L-G16RevC.01  3-Jul-2019
                 4-May-2022 
 ******************************************
 %nproc=4
 Will use up to    4 processors via shared memory.
 %mem=5760MB
 %chk=gaussian_7_scn.chk
 -----------------------------------------------------
 #P MP2/aug-cc-pVTZ scf(maxcycle=200) opt geom(AddGIC)
 -----------------------------------------------------
 1/18=20,19=15,38=1,145=903/1,3;
 2/9=110,12=2,17=6,18=5,40=1/2;
 3/5=16,6=1,7=10,11=9,25=1,30=1,71=1/1,2,3;
 4//1;
 5/5=2,7=200,38=5/2;
 8/6=4,10=1/1;
 9/15=2,16=-3/6;
 10/5=1/2;
 6/7=2,8=2,9=2,10=2/1;
 7/12=2/1,2,3,16;
 1/18=20,19=15,145=903/3(2);
 2/9=110/2;
 99//99;
 2/9=110/2;
 3/5=16,6=1,7=10,11=9,25=1,30=1,71=1/1,2,3;
 4/5=5,16=3,69=1/1;
 5/5=2,7=200,38=5/2;
 8/6=4,10=1/1;
 9/15=2,16=-3/6;
 10/5=1/2;
 7/12=2/1,2,3,16;
 1/18=20,19=15,145=903/3(-8);
 2/9=110/2;
 6/7=2,8=2,9=2,10=2/1;
 99/9=10/99;
 Leave Link    1 at Wed May  4 19:05:21 2022, MaxMem=   754974720 cpu:               0.3 elap:               0.2
 (Enter /opt/cluster/programs/g16-c.01/g16/l101.exe)
 --------------
 Gaussian input
 --------------
 Symbolic Z-matrix:
 Charge = -1 Multiplicity = 1
 N                     0.        0.       -1.82094 
 C                     0.        0.       -0.62859 
 S                     0.80525   0.        0.82413 
 
 Initializing the GIC definitions file.
 Number of initial coordinates =     3
 Number of input entries/lines =     1
 Number of additional coordinates =     0
 Number of removed coordinates =     0
 Number of frozen coordinates =     1
 Number of final active and frozen coordinates =     3
 ITRead=  0  0  0
 MicOpt= -1 -1 -1
 NAtoms=      3 NQM=        3 NQMF=       0 NMMI=      0 NMMIF=      0
                NMic=       0 NMicF=      0.
                    Isotopes and Nuclear Properties:
 (Nuclear quadrupole moments (NQMom) in fm**2, nuclear magnetic moments (NMagM)
  in nuclear magnetons)

  Atom         1           2           3
 IAtWgt=          14          12          32
 AtmWgt=  14.0030740  12.0000000  31.9720718
 NucSpn=           2           0           0
 AtZEff=  -0.0000000  -0.0000000  -0.0000000
 NQMom=    2.0440000   0.0000000   0.0000000
 NMagM=    0.4037610   0.0000000   0.0000000
 AtZNuc=   7.0000000   6.0000000  16.0000000
 Leave Link  101 at Wed May  4 19:05:22 2022, MaxMem=   754974720 cpu:               2.3 elap:               0.8
 (Enter /opt/cluster/programs/g16-c.01/g16/l103.exe)

 GradGradGradGradGradGradGradGradGradGradGradGradGradGradGradGradGradGrad
 Berny optimization.
 Initialization pass.
                           ----------------------------
                           !    Initial Parameters    !
                           ! (Angstroms and Degrees)  !
 --------------------------                            --------------------------
 ! Name  Definition              Value          Derivative Info.                !
 --------------------------------------------------------------------------------
 ! R1    R(1,2)                  1.1924         estimate D2E/DX2                !
 ! R2    R(2,3)                  1.661          estimate D2E/DX2                !
 ! A1    A(1,2,3)              151.0            Frozen                          !
 --------------------------------------------------------------------------------
 Trust Radius=3.00D-01 FncErr=1.00D-07 GrdErr=1.00D-07 EigMax=2.50D+02 EigMin=1.00D-04
 Number of steps in this run=     20 maximum allowed number of steps=    100.
 GradGradGradGradGradGradGradGradGradGradGradGradGradGradGradGradGradGrad

 Leave Link  103 at Wed May  4 19:05:22 2022, MaxMem=   754974720 cpu:               0.0 elap:               0.0
 (Enter /opt/cluster/programs/g16-c.01/g16/l202.exe)
                          Input orientation:                          
 ---------------------------------------------------------------------
 Center     Atomic      Atomic             Coordinates (Angstroms)
 Number     Number       Type             X           Y           Z
 ---------------------------------------------------------------------
      1          7           0        0.000000    0.000000   -1.820943
      2          6           0        0.000000    0.000000   -0.628586
      3         16           0        0.805253    0.000000    0.824129
 ---------------------------------------------------------------------
                    Distance matrix (angstroms):
                    1          2          3
     1  N    0.000000
     2  C    1.192357   0.000000
     3  S    2.764930   1.660968   0.000000
 Stoichiometry    CNS(1-)
 Framework group  CS[SG(CNS)]
 Deg. of freedom     3
 Full point group                 CS      NOp   2
 Largest Abelian subgroup         CS      NOp   2
 Largest concise Abelian subgroup C1      NOp   1
                         Standard orientation:                         
 ---------------------------------------------------------------------
 Center     Atomic      Atomic             Coordinates (Angstroms)
 Number     Number       Type             X           Y           Z
 ---------------------------------------------------------------------
      1          7           0        0.779990    1.581008    0.000000
      2          6           0        0.000000    0.679160    0.000000
      3         16           0       -0.341246   -0.946376    0.000000
 ---------------------------------------------------------------------
 Rotational constants (GHZ):         475.3334220           6.2896269           6.2074892
 Leave Link  202 at Wed May  4 19:05:22 2022, MaxMem=   754974720 cpu:               0.0 elap:               0.0
 (Enter /opt/cluster/programs/g16-c.01/g16/l301.exe)
 Standard basis: Aug-CC-pVTZ (5D, 7F)
 Ernie: Thresh=  0.10000D-02 Tol=  0.10000D-05 Strict=F.
 Ernie:  19 primitive shells out of 124 were deleted.
 There are   114 symmetry adapted cartesian basis functions of A'  symmetry.
 There are    55 symmetry adapted cartesian basis functions of A"  symmetry.
 There are    93 symmetry adapted basis functions of A'  symmetry.
 There are    49 symmetry adapted basis functions of A"  symmetry.
   142 basis functions,   258 primitive gaussians,   169 cartesian basis functions
    15 alpha electrons       15 beta electrons
       nuclear repulsion energy        70.6606726201 Hartrees.
 IExCor=    0 DFT=F Ex=HF Corr=None ExCW=0 ScaHFX=  1.000000
 ScaDFX=  1.000000  1.000000  1.000000  1.000000 ScalE2=  1.000000  1.000000
 IRadAn=      5 IRanWt=     -1 IRanGd=            0 ICorTp=0 IEmpDi=  4
 NAtoms=    3 NActive=    3 NUniq=    3 SFac= 1.00D+00 NAtFMM=   60 NAOKFM=F Big=F
 Integral buffers will be    131072 words long.
 Raffenetti 1 integral format.
 Two-electron integral symmetry is turned on.
 Leave Link  301 at Wed May  4 19:05:22 2022, MaxMem=   754974720 cpu:               0.2 elap:               0.1
 (Enter /opt/cluster/programs/g16-c.01/g16/l302.exe)
 NPDir=0 NMtPBC=     1 NCelOv=     1 NCel=       1 NClECP=     1 NCelD=      1
         NCelK=      1 NCelE2=     1 NClLst=     1 CellRange=     0.0.
 One-electron integrals computed using PRISM.
 One-electron integral symmetry used in STVInt
 NBasis=   142 RedAO= T EigKep=  1.04D-04  NBF=    93    49
 NBsUse=   142 1.00D-06 EigRej= -1.00D+00 NBFU=    93    49
 Leave Link  302 at Wed May  4 19:05:22 2022, MaxMem=   754974720 cpu:               0.6 elap:               0.2
 (Enter /opt/cluster/programs/g16-c.01/g16/l303.exe)
 DipDrv:  MaxL=1.
 Leave Link  303 at Wed May  4 19:05:22 2022, MaxMem=   754974720 cpu:               0.2 elap:               0.0
 (Enter /opt/cluster/programs/g16-c.01/g16/l401.exe)
 ExpMin= 3.51D-02 ExpMax= 3.74D+05 ExpMxC= 1.18D+03 IAcc=3 IRadAn=         5 AccDes= 0.00D+00
 Harris functional with IExCor=  205 and IRadAn=       5 diagonalized for initial guess.
 HarFok:  IExCor=  205 AccDes= 0.00D+00 IRadAn=         5 IDoV= 1 UseB2=F ITyADJ=14
 ICtDFT=  3500011 ScaDFX=  1.000000  1.000000  1.000000  1.000000
 FoFCou: FMM=F IPFlag=           0 FMFlag=      100000 FMFlg1=           0
         NFxFlg=           0 DoJE=T BraDBF=F KetDBF=T FulRan=T
         wScrn=  0.000000 ICntrl=       500 IOpCl=  0 I1Cent=   200000004 NGrid=           0
         NMat0=    1 NMatS0=      1 NMatT0=    0 NMatD0=    1 NMtDS0=    0 NMtDT0=    0
 Petite list used in FoFCou.
 Harris En= -489.751744489266    
 JPrj=0 DoOrth=F DoCkMO=F.
 Initial guess orbital symmetries:
       Occupied  (A') (A') (A') (A') (A') (A") (A') (A') (A') (A')
                 (A') (A") (A') (A") (A')
       Virtual   (A') (A") (A') (A') (A') (A") (A') (A') (A") (A')
                 (A") (A') (A') (A') (A") (A') (A') (A") (A') (A')
                 (A") (A') (A') (A") (A') (A') (A") (A') (A') (A")
                 (A') (A') (A") (A') (A") (A') (A") (A') (A') (A")
                 (A') (A') (A") (A') (A') (A") (A') (A") (A') (A')
                 (A") (A') (A") (A') (A') (A") (A') (A") (A') (A')
                 (A") (A') (A') (A") (A') (A") (A') (A") (A') (A')
                 (A') (A") (A') (A") (A') (A') (A") (A') (A") (A')
                 (A") (A') (A') (A") (A') (A") (A') (A") (A') (A')
                 (A') (A") (A') (A") (A') (A') (A") (A') (A') (A")
                 (A') (A") (A') (A") (A') (A') (A") (A') (A') (A")
                 (A') (A') (A") (A') (A') (A") (A") (A') (A') (A")
                 (A') (A") (A') (A') (A') (A') (A')
 The electronic state of the initial guess is 1-A'.
 Leave Link  401 at Wed May  4 19:05:22 2022, MaxMem=   754974720 cpu:               1.2 elap:               0.3
 (Enter /opt/cluster/programs/g16-c.01/g16/l502.exe)
 Keep R1 ints in memory in symmetry-blocked form, NReq=77616006.
 FoFCou: FMM=F IPFlag=           0 FMFlag=           0 FMFlg1=           0
         NFxFlg=           0 DoJE=F BraDBF=F KetDBF=F FulRan=T
         wScrn=  0.000000 ICntrl=       600 IOpCl=  0 I1Cent=           0 NGrid=           0
         NMat0=    1 NMatS0=  10153 NMatT0=    0 NMatD0=    1 NMtDS0=    0 NMtDT0=    0
 Petite list used in FoFCou.
 Closed shell SCF:
 Using DIIS extrapolation, IDIIS=  1040.
 NGot=   754974720 LenX=   728846748 LenY=   728817746
 Requested convergence on RMS density matrix=1.00D-08 within 200 cycles.
 Requested convergence on MAX density matrix=1.00D-06.
 Requested convergence on             energy=1.00D-06.
 No special actions if energy rises.

 Cycle   1  Pass 1  IDiag  1:
 E= -489.737185368614    
 DIIS: error= 4.48D-02 at cycle   1 NSaved=   1.
 NSaved= 1 IEnMin= 1 EnMin= -489.737185368614     IErMin= 1 ErrMin= 4.48D-02
 ErrMax= 4.48D-02  0.00D+00 EMaxC= 1.00D-01 BMatC= 3.48D-01 BMatP= 3.48D-01
 IDIUse=3 WtCom= 5.52D-01 WtEn= 4.48D-01
 Coeff-Com:  0.100D+01
 Coeff-En:   0.100D+01
 Coeff:      0.100D+01
 Gap=     0.521 Goal=   None    Shift=    0.000
 GapD=    0.521 DampG=2.000 DampE=0.500 DampFc=1.0000 IDamp=-1.
 RMSDP=3.40D-03 MaxDP=6.85D-02              OVMax= 2.22D-01

 Cycle   2  Pass 1  IDiag  1:
 E= -489.851197010427     Delta-E=       -0.114011641813 Rises=F Damp=F
 DIIS: error= 2.21D-02 at cycle   2 NSaved=   2.
 NSaved= 2 IEnMin= 2 EnMin= -489.851197010427     IErMin= 2 ErrMin= 2.21D-02
 ErrMax= 2.21D-02  0.00D+00 EMaxC= 1.00D-01 BMatC= 7.69D-02 BMatP= 3.48D-01
 IDIUse=3 WtCom= 7.79D-01 WtEn= 2.21D-01
 Coeff-Com:  0.261D+00 0.739D+00
 Coeff-En:   0.121D+00 0.879D+00
 Coeff:      0.230D+00 0.770D+00
 Gap=     0.371 Goal=   None    Shift=    0.000
 RMSDP=1.47D-03 MaxDP=4.25D-02 DE=-1.14D-01 OVMax= 9.22D-02

 Cycle   3  Pass 1  IDiag  1:
 E= -489.909612562954     Delta-E=       -0.058415552527 Rises=F Damp=F
 DIIS: error= 1.46D-02 at cycle   3 NSaved=   3.
 NSaved= 3 IEnMin= 3 EnMin= -489.909612562954     IErMin= 3 ErrMin= 1.46D-02
 ErrMax= 1.46D-02  0.00D+00 EMaxC= 1.00D-01 BMatC= 1.63D-02 BMatP= 7.69D-02
 IDIUse=3 WtCom= 8.54D-01 WtEn= 1.46D-01
 Coeff-Com: -0.151D-01 0.297D+00 0.719D+00
 Coeff-En:   0.000D+00 0.470D-01 0.953D+00
 Coeff:     -0.129D-01 0.260D+00 0.753D+00
 Gap=     0.315 Goal=   None    Shift=    0.000
 RMSDP=5.96D-04 MaxDP=1.35D-02 DE=-5.84D-02 OVMax= 5.19D-02

 Cycle   4  Pass 1  IDiag  1:
 E= -489.923756039511     Delta-E=       -0.014143476557 Rises=F Damp=F
 DIIS: error= 5.00D-03 at cycle   4 NSaved=   4.
 NSaved= 4 IEnMin= 4 EnMin= -489.923756039511     IErMin= 4 ErrMin= 5.00D-03
 ErrMax= 5.00D-03  0.00D+00 EMaxC= 1.00D-01 BMatC= 1.25D-03 BMatP= 1.63D-02
 IDIUse=3 WtCom= 9.50D-01 WtEn= 5.00D-02
 Coeff-Com: -0.143D-01 0.533D-01 0.287D+00 0.674D+00
 Coeff-En:   0.000D+00 0.000D+00 0.000D+00 0.100D+01
 Coeff:     -0.136D-01 0.507D-01 0.273D+00 0.690D+00
 Gap=     0.306 Goal=   None    Shift=    0.000
 RMSDP=1.49D-04 MaxDP=3.22D-03 DE=-1.41D-02 OVMax= 1.36D-02

 Cycle   5  Pass 1  IDiag  1:
 E= -489.924987862111     Delta-E=       -0.001231822600 Rises=F Damp=F
 DIIS: error= 8.92D-04 at cycle   5 NSaved=   5.
 NSaved= 5 IEnMin= 5 EnMin= -489.924987862111     IErMin= 5 ErrMin= 8.92D-04
 ErrMax= 8.92D-04  0.00D+00 EMaxC= 1.00D-01 BMatC= 6.54D-05 BMatP= 1.25D-03
 IDIUse=3 WtCom= 9.91D-01 WtEn= 8.92D-03
 Coeff-Com:  0.238D-02-0.399D-01-0.942D-01 0.337D-01 0.110D+01
 Coeff-En:   0.000D+00 0.000D+00 0.000D+00 0.000D+00 0.100D+01
 Coeff:      0.236D-02-0.396D-01-0.933D-01 0.334D-01 0.110D+01
 Gap=     0.306 Goal=   None    Shift=    0.000
 RMSDP=8.88D-05 MaxDP=1.65D-03 DE=-1.23D-03 OVMax= 7.12D-03

 Cycle   6  Pass 1  IDiag  1:
 E= -489.925160999919     Delta-E=       -0.000173137808 Rises=F Damp=F
 DIIS: error= 3.73D-04 at cycle   6 NSaved=   6.
 NSaved= 6 IEnMin= 6 EnMin= -489.925160999919     IErMin= 6 ErrMin= 3.73D-04
 ErrMax= 3.73D-04  0.00D+00 EMaxC= 1.00D-01 BMatC= 7.45D-06 BMatP= 6.54D-05
 IDIUse=3 WtCom= 9.96D-01 WtEn= 3.73D-03
 Coeff-Com:  0.111D-02-0.104D-01-0.325D-01-0.665D-01 0.886D-01 0.102D+01
 Coeff-En:   0.000D+00 0.000D+00 0.000D+00 0.000D+00 0.000D+00 0.100D+01
 Coeff:      0.110D-02-0.104D-01-0.324D-01-0.663D-01 0.883D-01 0.102D+01
 Gap=     0.307 Goal=   None    Shift=    0.000
 RMSDP=3.64D-05 MaxDP=7.31D-04 DE=-1.73D-04 OVMax= 3.45D-03

 Cycle   7  Pass 1  IDiag  1:
 E= -489.925187543444     Delta-E=       -0.000026543525 Rises=F Damp=F
 DIIS: error= 1.49D-04 at cycle   7 NSaved=   7.
 NSaved= 7 IEnMin= 7 EnMin= -489.925187543444     IErMin= 7 ErrMin= 1.49D-04
 ErrMax= 1.49D-04  0.00D+00 EMaxC= 1.00D-01 BMatC= 1.37D-06 BMatP= 7.45D-06
 IDIUse=3 WtCom= 9.99D-01 WtEn= 1.49D-03
 Coeff-Com: -0.220D-03 0.558D-02 0.157D-01-0.816D-02-0.148D+00-0.150D+00
 Coeff-Com:  0.129D+01
 Coeff-En:   0.000D+00 0.000D+00 0.000D+00 0.000D+00 0.000D+00 0.000D+00
 Coeff-En:   0.100D+01
 Coeff:     -0.219D-03 0.557D-02 0.157D-01-0.815D-02-0.148D+00-0.150D+00
 Coeff:      0.128D+01
 Gap=     0.307 Goal=   None    Shift=    0.000
 RMSDP=2.30D-05 MaxDP=6.17D-04 DE=-2.65D-05 OVMax= 2.12D-03

 Cycle   8  Pass 1  IDiag  1:
 E= -489.925194482974     Delta-E=       -0.000006939530 Rises=F Damp=F
 DIIS: error= 8.96D-05 at cycle   8 NSaved=   8.
 NSaved= 8 IEnMin= 8 EnMin= -489.925194482974     IErMin= 8 ErrMin= 8.96D-05
 ErrMax= 8.96D-05  0.00D+00 EMaxC= 1.00D-01 BMatC= 2.34D-07 BMatP= 1.37D-06
 IDIUse=1 WtCom= 1.00D+00 WtEn= 0.00D+00
 Coeff-Com: -0.106D-03-0.882D-03-0.162D-02 0.106D-01 0.574D-01-0.491D-01
 Coeff-Com: -0.626D+00 0.161D+01
 Coeff:     -0.106D-03-0.882D-03-0.162D-02 0.106D-01 0.574D-01-0.491D-01
 Coeff:     -0.626D+00 0.161D+01
 Gap=     0.307 Goal=   None    Shift=    0.000
 RMSDP=1.32D-05 MaxDP=4.55D-04 DE=-6.94D-06 OVMax= 1.08D-03

 Cycle   9  Pass 1  IDiag  1:
 E= -489.925196218879     Delta-E=       -0.000001735905 Rises=F Damp=F
 DIIS: error= 4.53D-05 at cycle   9 NSaved=   9.
 NSaved= 9 IEnMin= 9 EnMin= -489.925196218879     IErMin= 9 ErrMin= 4.53D-05
 ErrMax= 4.53D-05  0.00D+00 EMaxC= 1.00D-01 BMatC= 4.65D-08 BMatP= 2.34D-07
 IDIUse=1 WtCom= 1.00D+00 WtEn= 0.00D+00
 Coeff-Com:  0.860D-04-0.640D-03-0.206D-02-0.317D-02 0.168D-02 0.432D-01
 Coeff-Com:  0.549D-01-0.714D+00 0.162D+01
 Coeff:      0.860D-04-0.640D-03-0.206D-02-0.317D-02 0.168D-02 0.432D-01
 Coeff:      0.549D-01-0.714D+00 0.162D+01
 Gap=     0.307 Goal=   None    Shift=    0.000
 RMSDP=6.21D-06 MaxDP=1.91D-04 DE=-1.74D-06 OVMax= 4.92D-04

 Cycle  10  Pass 1  IDiag  1:
 E= -489.925196620112     Delta-E=       -0.000000401234 Rises=F Damp=F
 DIIS: error= 1.60D-05 at cycle  10 NSaved=  10.
 NSaved=10 IEnMin=10 EnMin= -489.925196620112     IErMin=10 ErrMin= 1.60D-05
 ErrMax= 1.60D-05  0.00D+00 EMaxC= 1.00D-01 BMatC= 7.53D-09 BMatP= 4.65D-08
 IDIUse=1 WtCom= 1.00D+00 WtEn= 0.00D+00
 Coeff-Com:  0.223D-04 0.249D-03 0.549D-03-0.155D-02-0.133D-01 0.696D-03
 Coeff-Com:  0.135D+00-0.237D+00-0.329D+00 0.144D+01
 Coeff:      0.223D-04 0.249D-03 0.549D-03-0.155D-02-0.133D-01 0.696D-03
 Coeff:      0.135D+00-0.237D+00-0.329D+00 0.144D+01
 Gap=     0.307 Goal=   None    Shift=    0.000
 RMSDP=2.41D-06 MaxDP=5.35D-05 DE=-4.01D-07 OVMax= 2.06D-04

 Cycle  11  Pass 1  IDiag  1:
 E= -489.925196679404     Delta-E=       -0.000000059292 Rises=F Damp=F
 DIIS: error= 2.41D-06 at cycle  11 NSaved=  11.
 NSaved=11 IEnMin=11 EnMin= -489.925196679404     IErMin=11 ErrMin= 2.41D-06
 ErrMax= 2.41D-06  0.00D+00 EMaxC= 1.00D-01 BMatC= 5.51D-10 BMatP= 7.53D-09
 IDIUse=1 WtCom= 1.00D+00 WtEn= 0.00D+00
 Coeff-Com: -0.161D-04 0.228D-04 0.689D-04 0.947D-03 0.311D-02-0.466D-02
 Coeff-Com: -0.412D-01 0.148D+00-0.122D+00-0.286D+00 0.130D+01
 Coeff:     -0.161D-04 0.228D-04 0.689D-04 0.947D-03 0.311D-02-0.466D-02
 Coeff:     -0.412D-01 0.148D+00-0.122D+00-0.286D+00 0.130D+01
 Gap=     0.307 Goal=   None    Shift=    0.000
 RMSDP=5.21D-07 MaxDP=1.87D-05 DE=-5.93D-08 OVMax= 3.12D-05

 Cycle  12  Pass 1  IDiag  1:
 E= -489.925196681776     Delta-E=       -0.000000002372 Rises=F Damp=F
 DIIS: error= 7.15D-07 at cycle  12 NSaved=  12.
 NSaved=12 IEnMin=12 EnMin= -489.925196681776     IErMin=12 ErrMin= 7.15D-07
 ErrMax= 7.15D-07  0.00D+00 EMaxC= 1.00D-01 BMatC= 3.29D-11 BMatP= 5.51D-10
 IDIUse=1 WtCom= 1.00D+00 WtEn= 0.00D+00
 Coeff-Com:  0.530D-06-0.215D-04-0.662D-04-0.126D-06 0.816D-03 0.135D-03
 Coeff-Com: -0.565D-02 0.183D-02 0.369D-01-0.699D-01-0.185D+00 0.122D+01
 Coeff:      0.530D-06-0.215D-04-0.662D-04-0.126D-06 0.816D-03 0.135D-03
 Coeff:     -0.565D-02 0.183D-02 0.369D-01-0.699D-01-0.185D+00 0.122D+01
 Gap=     0.307 Goal=   None    Shift=    0.000
 RMSDP=1.93D-07 MaxDP=8.37D-06 DE=-2.37D-09 OVMax= 9.52D-06

 Cycle  13  Pass 1  IDiag  1:
 E= -489.925196681933     Delta-E=       -0.000000000157 Rises=F Damp=F
 DIIS: error= 2.68D-07 at cycle  13 NSaved=  13.
 NSaved=13 IEnMin=13 EnMin= -489.925196681933     IErMin=13 ErrMin= 2.68D-07
 ErrMax= 2.68D-07  0.00D+00 EMaxC= 1.00D-01 BMatC= 2.97D-12 BMatP= 3.29D-11
 IDIUse=1 WtCom= 1.00D+00 WtEn= 0.00D+00
 Coeff-Com:  0.170D-05 0.992D-06 0.359D-05-0.106D-03-0.487D-03 0.332D-03
 Coeff-Com:  0.592D-02-0.162D-01 0.599D-02 0.430D-01-0.101D+00-0.205D+00
 Coeff-Com:  0.127D+01
 Coeff:      0.170D-05 0.992D-06 0.359D-05-0.106D-03-0.487D-03 0.332D-03
 Coeff:      0.592D-02-0.162D-01 0.599D-02 0.430D-01-0.101D+00-0.205D+00
 Coeff:      0.127D+01
 Gap=     0.307 Goal=   None    Shift=    0.000
 RMSDP=6.43D-08 MaxDP=2.71D-06 DE=-1.57D-10 OVMax= 3.52D-06

 Cycle  14  Pass 1  IDiag  1:
 E= -489.925196681946     Delta-E=       -0.000000000013 Rises=F Damp=F
 DIIS: error= 6.66D-08 at cycle  14 NSaved=  14.
 NSaved=14 IEnMin=14 EnMin= -489.925196681946     IErMin=14 ErrMin= 6.66D-08
 ErrMax= 6.66D-08  0.00D+00 EMaxC= 1.00D-01 BMatC= 1.61D-13 BMatP= 2.97D-12
 IDIUse=1 WtCom= 1.00D+00 WtEn= 0.00D+00
 Coeff-Com: -0.460D-06 0.754D-06 0.291D-05 0.261D-04 0.791D-04-0.578D-04
 Coeff-Com: -0.123D-02 0.377D-02-0.278D-02-0.791D-02 0.361D-01-0.122D-01
 Coeff-Com: -0.351D+00 0.134D+01
 Coeff:     -0.460D-06 0.754D-06 0.291D-05 0.261D-04 0.791D-04-0.578D-04
 Coeff:     -0.123D-02 0.377D-02-0.278D-02-0.791D-02 0.361D-01-0.122D-01
 Coeff:     -0.351D+00 0.134D+01
 Gap=     0.307 Goal=   None    Shift=    0.000
 RMSDP=1.22D-08 MaxDP=3.24D-07 DE=-1.31D-11 OVMax= 7.90D-07

 Cycle  15  Pass 1  IDiag  1:
 E= -489.925196681948     Delta-E=       -0.000000000001 Rises=F Damp=F
 DIIS: error= 1.20D-08 at cycle  15 NSaved=  15.
 NSaved=15 IEnMin=15 EnMin= -489.925196681948     IErMin=15 ErrMin= 1.20D-08
 ErrMax= 1.20D-08  0.00D+00 EMaxC= 1.00D-01 BMatC= 9.24D-15 BMatP= 1.61D-13
 IDIUse=1 WtCom= 1.00D+00 WtEn= 0.00D+00
 Coeff-Com:  0.784D-07-0.204D-06-0.994D-06-0.467D-05-0.641D-05 0.995D-05
 Coeff-Com:  0.145D-03-0.570D-03 0.762D-03 0.687D-03-0.838D-02 0.145D-01
 Coeff-Com:  0.637D-01-0.485D+00 0.141D+01
 Coeff:      0.784D-07-0.204D-06-0.994D-06-0.467D-05-0.641D-05 0.995D-05
 Coeff:      0.145D-03-0.570D-03 0.762D-03 0.687D-03-0.838D-02 0.145D-01
 Coeff:      0.637D-01-0.485D+00 0.141D+01
 Gap=     0.307 Goal=   None    Shift=    0.000
 RMSDP=2.47D-09 MaxDP=5.18D-08 DE=-1.02D-12 OVMax= 1.47D-07

 SCF Done:  E(RHF) =  -489.925196682     A.U. after   15 cycles
            NFock= 15  Conv=0.25D-08     -V/T= 2.0004
 KE= 4.897237507475D+02 PE=-1.311831016720D+03 EE= 2.615213966705D+02
 Leave Link  502 at Wed May  4 19:05:28 2022, MaxMem=   754974720 cpu:              12.4 elap:               5.3
 (Enter /opt/cluster/programs/g16-c.01/g16/l801.exe)
 ExpMin= 3.51D-02 ExpMax= 3.74D+05 ExpMxC= 1.18D+03 IAcc=3 IRadAn=         5 AccDes= 0.00D+00
 HarFok:  IExCor=  205 AccDes= 0.00D+00 IRadAn=         5 IDoV=-2 UseB2=F ITyADJ=14
 ICtDFT= 12500011 ScaDFX=  1.000000  1.000000  1.000000  1.000000
 Largest valence mixing into a core orbital is  5.36D-04
 Largest core mixing into a valence orbital is  1.39D-04
 Range of M.O.s used for correlation:     8   142
 NBasis=   142 NAE=    15 NBE=    15 NFC=     7 NFV=     0
 NROrb=    135 NOA=     8 NOB=     8 NVA=   127 NVB=   127

 **** Warning!!: The largest alpha MO coefficient is  0.18739635D+02

 Leave Link  801 at Wed May  4 19:05:28 2022, MaxMem=   754974720 cpu:               0.4 elap:               0.1
 (Enter /opt/cluster/programs/g16-c.01/g16/l906.exe)
 Frozen-core derivative calculation, NFC=   7 NFV=   0.
 FulOut=F Deriv=T AODrv=T NAtomX=     3
   MMem=          74  MDisk=           8 MDiskD=           8
  W3Min=      359970 MinDsk=      723803 NBas6D=         169
 NBas2D=       14809    NTT=       14365    LW2=     3500000
    MDV=   754677531 MDiskM=       22268 NBas2p=       14795
 Fully direct method using O(ONN) memory.
 IMap=   1   2   3   4   5   6   7   8   9  10  11  12  13  14  15
 JobTyp=1 Pass  1:  I=   8 to  15 NPSUse=  4 ParTrn=T ParDer=T DoDerP=T.
 Spin components of T(2) and E(2):
     alpha-alpha T2 =       0.2932982877D-01 E2=     -0.6972912556D-01
     alpha-beta  T2 =       0.1547130641D+00 E2=     -0.3968693233D+00
     beta-beta   T2 =       0.2932982877D-01 E2=     -0.6972912556D-01
 The integrals were generated   1 times.
 ANorm=    0.1101531988D+01
 E2 =    -0.5363275744D+00 EUMP2 =    -0.49046152425638D+03
 Leave Link  906 at Wed May  4 19:05:37 2022, MaxMem=   754974720 cpu:              35.0 elap:               8.8
 (Enter /opt/cluster/programs/g16-c.01/g16/l1002.exe)
 Minotr:  Closed shell wavefunction.
          Computing MP2/KS-MP2 derivatives.
          Using Z-Vector for PSCF gradient.
          Skipping F1 and S1 gradient terms here.
          IDoAtm=111
          Frozen-core window.
          Direct CPHF calculation.
          Differentiating once with respect to electric field.
                with respect to dipole field.
          Differentiating once with respect to nuclear coordinates.
          Using symmetry in CPHF.
          Requested convergence is 1.0D-10 RMS, and 1.0D-09 maximum.
          NewPWx=F KeepS1=T KeepF1=T KeepIn=T MapXYZ=F SortEE=F KeepMc=T.
 Keep R1 ints in memory in symmetry-blocked form, NReq=77616884.
 FoFCou: FMM=F IPFlag=           0 FMFlag=           0 FMFlg1=           0
         NFxFlg=           0 DoJE=F BraDBF=F KetDBF=F FulRan=T
         wScrn=  0.000000 ICntrl=       600 IOpCl=  0 I1Cent=           0 NGrid=           0
         NMat0=    1 NMatS0=  10153 NMatT0=    0 NMatD0=    1 NMtDS0=    0 NMtDT0=    0
 Petite list used in FoFCou.
          MDV=     754974720 using IRadAn=       5.
          Solving linear equations separately, MaxMat=       0.
          There are     1 degrees of freedom in the 1st order CPHF.  IDoFFX=0 NUNeed=     1.
 LinEq1:  Iter=  0 NonCon=     1 RMS=5.04D-03 Max=8.73D-02 NDo=     1
 AX will form     1 AO Fock derivatives at one time.
 LinEq1:  Iter=  1 NonCon=     1 RMS=1.74D-03 Max=1.66D-02 NDo=     1
 LinEq1:  Iter=  2 NonCon=     1 RMS=6.35D-04 Max=8.42D-03 NDo=     1
 LinEq1:  Iter=  3 NonCon=     1 RMS=3.46D-04 Max=5.42D-03 NDo=     1
 LinEq1:  Iter=  4 NonCon=     1 RMS=1.83D-04 Max=4.68D-03 NDo=     1
 LinEq1:  Iter=  5 NonCon=     1 RMS=6.89D-05 Max=7.98D-04 NDo=     1
 LinEq1:  Iter=  6 NonCon=     1 RMS=1.99D-05 Max=2.47D-04 NDo=     1
 LinEq1:  Iter=  7 NonCon=     1 RMS=4.73D-06 Max=5.57D-05 NDo=     1
 LinEq1:  Iter=  8 NonCon=     1 RMS=1.01D-06 Max=9.44D-06 NDo=     1
 LinEq1:  Iter=  9 NonCon=     1 RMS=2.85D-07 Max=3.96D-06 NDo=     1
 LinEq1:  Iter= 10 NonCon=     1 RMS=6.47D-08 Max=8.05D-07 NDo=     1
 LinEq1:  Iter= 11 NonCon=     1 RMS=1.35D-08 Max=1.10D-07 NDo=     1
 LinEq1:  Iter= 12 NonCon=     1 RMS=2.64D-09 Max=2.77D-08 NDo=     1
 LinEq1:  Iter= 13 NonCon=     1 RMS=4.34D-10 Max=5.05D-09 NDo=     1
 LinEq1:  Iter= 14 NonCon=     0 RMS=7.51D-11 Max=8.42D-10 NDo=     1
 Linear equations converged to 1.000D-10 1.000D-09 after    14 iterations.
 End of Minotr F.D. properties file   721 does not exist.
 End of Minotr F.D. properties file   722 does not exist.
 End of Minotr F.D. properties file   788 does not exist.
 Leave Link 1002 at Wed May  4 19:05:41 2022, MaxMem=   754974720 cpu:              13.5 elap:               3.7
 (Enter /opt/cluster/programs/g16-c.01/g16/l601.exe)
 Copying SCF densities to generalized density rwf, IOpCl= 0 IROHF=0.

 **********************************************************************

            Population analysis using the SCF Density.

 **********************************************************************

 Orbital symmetries:
       Occupied  (A') (A') (A') (A') (A') (A") (A') (A') (A') (A')
                 (A') (A") (A') (A") (A')
       Virtual   (A') (A') (A') (A") (A') (A") (A') (A") (A') (A')
                 (A') (A') (A") (A') (A') (A") (A') (A') (A") (A')
                 (A") (A') (A') (A") (A') (A') (A") (A') (A') (A")
                 (A') (A') (A") (A') (A") (A') (A") (A') (A') (A")
                 (A') (A') (A") (A') (A') (A") (A') (A") (A') (A")
                 (A') (A') (A") (A') (A') (A") (A') (A") (A') (A')
                 (A') (A") (A') (A") (A') (A") (A') (A") (A') (A')
                 (A') (A") (A') (A") (A') (A") (A') (A') (A') (A")
                 (A") (A') (A") (A') (A') (A") (A') (A") (A') (A')
                 (A') (A") (A') (A') (A") (A') (A") (A') (A") (A')
                 (A') (A") (A') (A") (A') (A") (A') (A') (A') (A")
                 (A') (A') (A") (A') (A') (A") (A") (A') (A') (A")
                 (A') (A") (A') (A') (A') (A') (A')
 The electronic state is 1-A'.
 Alpha  occ. eigenvalues --  -91.72700 -15.36240 -11.09902  -8.72937  -6.41139
 Alpha  occ. eigenvalues --   -6.40883  -6.40877  -1.00081  -0.76733  -0.41361
 Alpha  occ. eigenvalues --   -0.33301  -0.30076  -0.29988  -0.13744  -0.13262
 Alpha virt. eigenvalues --    0.17447   0.19195   0.22568   0.23572   0.23928
 Alpha virt. eigenvalues --    0.24079   0.24734   0.29475   0.30227   0.31141
 Alpha virt. eigenvalues --    0.34212   0.37840   0.39970   0.42135   0.44692
 Alpha virt. eigenvalues --    0.45422   0.46138   0.53997   0.54160   0.54624
 Alpha virt. eigenvalues --    0.55359   0.58647   0.62133   0.64085   0.65120
 Alpha virt. eigenvalues --    0.70379   0.71227   0.75211   0.77336   0.77428
 Alpha virt. eigenvalues --    0.77982   0.81013   0.81920   0.88127   0.90428
 Alpha virt. eigenvalues --    0.93004   0.95424   0.96060   1.01393   1.01575
 Alpha virt. eigenvalues --    1.02615   1.06919   1.06978   1.14763   1.15449
 Alpha virt. eigenvalues --    1.15463   1.25418   1.27416   1.28555   1.28756
 Alpha virt. eigenvalues --    1.30492   1.33549   1.36359   1.38496   1.43545
 Alpha virt. eigenvalues --    1.48059   1.49091   1.55528   1.56901   1.59933
 Alpha virt. eigenvalues --    1.73250   1.73318   1.75181   1.80967   1.85530
 Alpha virt. eigenvalues --    1.90878   1.92276   2.03167   2.04499   2.08000
 Alpha virt. eigenvalues --    2.14094   2.16559   2.18099   2.28277   2.29607
 Alpha virt. eigenvalues --    2.30216   2.32156   2.39705   2.44705   2.46189
 Alpha virt. eigenvalues --    2.52392   2.55510   2.59770   2.60092   2.60729
 Alpha virt. eigenvalues --    2.60918   2.66232   2.70565   2.75350   2.83160
 Alpha virt. eigenvalues --    2.95539   2.99606   3.25840   3.28633   3.30578
 Alpha virt. eigenvalues --    3.61196   3.67880   3.68489   3.72177   3.72907
 Alpha virt. eigenvalues --    3.79148   3.88978   3.94738   3.98367   4.00829
 Alpha virt. eigenvalues --    4.12471   4.14040   4.25856   4.66515   4.71792
 Alpha virt. eigenvalues --    4.84800   4.93847   5.20369   5.20471   5.46454
 Alpha virt. eigenvalues --    5.48390   5.66295   5.67379   5.82158   5.85603
 Alpha virt. eigenvalues --    6.22363   6.27513   6.34564   6.36614   6.78086
 Alpha virt. eigenvalues --   11.97739  16.23013
          Condensed to atoms (all electrons):
               1          2          3
     1  N    6.876268   0.672727  -0.120315
     2  C    0.672727   5.083893   0.339010
     3  S   -0.120315   0.339010  16.256994
 Mulliken charges:
               1
     1  N   -0.428680
     2  C   -0.095631
     3  S   -0.475689
 Sum of Mulliken charges =  -1.00000
 Mulliken charges with hydrogens summed into heavy atoms:
               1
     1  N   -0.428680
     2  C   -0.095631
     3  S   -0.475689
 Electronic spatial extent (au):  <R**2>=            219.2745
 Charge=             -1.0000 electrons
 Dipole moment (field-independent basis, Debye):
    X=             -0.6664    Y=             -1.0067    Z=              0.0000  Tot=              1.2073
 Quadrupole moment (field-independent basis, Debye-Ang):
   XX=            -31.5951   YY=            -38.4204   ZZ=            -29.3462
   XY=             -4.9463   XZ=              0.0000   YZ=              0.0000
 Traceless Quadrupole moment (field-independent basis, Debye-Ang):
   XX=              1.5255   YY=             -5.2998   ZZ=              3.7743
   XY=             -4.9463   XZ=              0.0000   YZ=              0.0000
 Octapole moment (field-independent basis, Debye-Ang**2):
  XXX=              2.3380  YYY=            -15.6428  ZZZ=              0.0000  XYY=             -6.2998
  XXY=             -0.5490  XXZ=              0.0000  XZZ=              1.0168  YZZ=              1.8973
  YYZ=              0.0000  XYZ=              0.0000
 Hexadecapole moment (field-independent basis, Debye-Ang**3):
 XXXX=            -86.0025 YYYY=           -268.1323 ZZZZ=            -46.2548 XXXY=            -46.4916
 XXXZ=              0.0000 YYYX=            -50.6157 YYYZ=              0.0000 ZZZX=              0.0000
 ZZZY=              0.0000 XXYY=            -62.6293 XXZZ=            -21.8938 YYZZ=            -51.8088
 XXYZ=              0.0000 YYXZ=              0.0000 ZZXY=            -14.7648
 N-N= 7.066067262012D+01 E-N=-1.311831016754D+03  KE= 4.897237507475D+02
 Symmetry A'   KE= 4.487119221305D+02
 Symmetry A"   KE= 4.101182861707D+01
 No NMR shielding tensors so no spin-rotation constants.
 Leave Link  601 at Wed May  4 19:05:41 2022, MaxMem=   754974720 cpu:               2.2 elap:               0.7
 (Enter /opt/cluster/programs/g16-c.01/g16/l701.exe)
 ... and contract with generalized density number  2.
 Compute integral first derivatives.
 Leave Link  701 at Wed May  4 19:05:42 2022, MaxMem=   754974720 cpu:               2.2 elap:               1.1
 (Enter /opt/cluster/programs/g16-c.01/g16/l702.exe)
 L702 exits ... SP integral derivatives will be done elsewhere.
 Leave Link  702 at Wed May  4 19:05:43 2022, MaxMem=   754974720 cpu:               0.3 elap:               0.1
 (Enter /opt/cluster/programs/g16-c.01/g16/l703.exe)
 Integral derivatives from FoFJK, PRISM(SPDF).
 Compute integral first derivatives, UseDBF=F ICtDFT=           0.
 Calling FoFJK, ICntrl=  10002127 FMM=F ISym2X=1 I1Cent= 0 IOpClX= 0 NMat=1 NMatS=1 NMatT=0.
 FoFJK:  IHMeth= 1 ICntrl=10002127 DoSepK=F KAlg= 0 I1Cent=           0 FoldK=F
 IRaf=         0 NMat=       1 IRICut=       1 DoRegI=T DoRafI=F ISym2E= 1 IDoP0=0 IntGTp=1.
 FoFCou: FMM=F IPFlag=           0 FMFlag=      100000 FMFlg1=         800
         NFxFlg=           0 DoJE=F BraDBF=F KetDBF=F FulRan=T
         wScrn=  0.000000 ICntrl=  10002127 IOpCl=  0 I1Cent=           0 NGrid=           0
         NMat0=    1 NMatS0=      1 NMatT0=    0 NMatD0=    1 NMtDS0=    0 NMtDT0=    0
 Petite list used in FoFCou.
 Leave Link  703 at Wed May  4 19:05:47 2022, MaxMem=   754974720 cpu:              17.2 elap:               4.3
 (Enter /opt/cluster/programs/g16-c.01/g16/l716.exe)
 Dipole        =-2.13515839D-01-3.99734648D-01 0.00000000D+00
 ***** Axes restored to original set *****
 -------------------------------------------------------------------
 Center     Atomic                   Forces (Hartrees/Bohr)
 Number     Number              X              Y              Z
 -------------------------------------------------------------------
      1        7          -0.028680432   -0.000000000   -0.009595347
      2        6           0.040998556   -0.000000000   -0.010649926
      3       16          -0.012318124   -0.000000000    0.020245273
 -------------------------------------------------------------------
 Cartesian Forces:  Max     0.040998556 RMS     0.019062900
 Leave Link  716 at Wed May  4 19:05:47 2022, MaxMem=   754974720 cpu:               0.2 elap:               0.1
 (Enter /opt/cluster/programs/g16-c.01/g16/l103.exe)

 GradGradGradGradGradGradGradGradGradGradGradGradGradGradGradGradGradGrad
 Berny optimization.
 FormGI is forming the generalized inverse of G from B-inverse, IUseBI=4.
 Internal  Forces:  Max     0.064623547 RMS     0.038323113
 Search for a local minimum.
 Step number   1 out of a maximum of   20
 All quantities printed in internal units (Hartrees-Bohrs-Radians)
 RMS Force = .10719D-01 SwitMx=.10000D-02 MixMth= 1
 Mixed Optimization -- RFO/linear search
 Second derivative matrix not updated -- first step.
 The second derivative matrix:
                          R1        R2        A1
           R1           1.08759
           R2           0.00000   0.41030
           A1           0.00000   0.00000   0.25000
 ITU=  0
     Eigenvalues ---    0.41030   1.087591000.00000
 RFO step:  Lambda=-4.19911306D-04 EMin= 4.10299174D-01
 Linear search not attempted -- first point.
 Iteration  1 RMS(Cart)=  0.01571084 RMS(Int)=  0.00000125
 Iteration  2 RMS(Cart)=  0.00000141 RMS(Int)=  0.00000000
 Iteration  3 RMS(Cart)=  0.00000000 RMS(Int)=  0.00000000
 Iteration  1 RMS(Cart)=  0.00000000 RMS(Int)=  0.00000000
 ITry= 1 IFail=0 DXMaxC= 2.00D-02 DCOld= 1.00D+10 DXMaxT= 3.00D-01 DXLimC= 3.00D+00 Rises=F
 ClnCor:  largest displacement from symmetrization is 4.57D-16 for atom     1.
 Variable       Old X    -DE/DX   Delta X   Delta X   Delta X     New X
                                 (Linear)    (Quad)   (Total)
    R1        2.25323   0.00960   0.00000   0.00882   0.00882   2.26205
    R2        3.13877   0.01173   0.00000   0.02857   0.02857   3.16735
    A1        2.63545   0.06462   0.00000   0.00000   0.00000   2.63545
         Item               Value     Threshold  Converged?
 Maximum Force            0.011735     0.000450     NO 
 RMS     Force            0.010719     0.000300     NO 
 Maximum Displacement     0.020027     0.001800     NO 
 RMS     Displacement     0.015711     0.001200     NO 
 Predicted change in Energy=-2.101435D-04
 Lowest energy point so far.  Saving SCF results.
 GradGradGradGradGradGradGradGradGradGradGradGradGradGradGradGradGradGrad

 Leave Link  103 at Wed May  4 19:05:47 2022, MaxMem=   754974720 cpu:               0.7 elap:               0.4
 (Enter /opt/cluster/programs/g16-c.01/g16/l202.exe)
                          Input orientation:                          
 ---------------------------------------------------------------------
 Center     Atomic      Atomic             Coordinates (Angstroms)
 Number     Number       Type             X           Y           Z
 ---------------------------------------------------------------------
      1          7           0       -0.001905    0.000000   -1.828575
      2          6           0       -0.002406    0.000000   -0.631552
      3         16           0        0.809564    0.000000    0.834727
 ---------------------------------------------------------------------
                    Distance matrix (angstroms):
                    1          2          3
     1  N    0.000000
     2  C    1.197024   0.000000
     3  S    2.784181   1.676088   0.000000
 Stoichiometry    CNS(1-)
 Framework group  CS[SG(CNS)]
 Deg. of freedom     3
 Full point group                 CS      NOp   2
 RotChk:  IX=0 Diff= 2.60D-03
 Largest Abelian subgroup         CS      NOp   2
 Largest concise Abelian subgroup C1      NOp   1
                         Standard orientation:                         
 ---------------------------------------------------------------------
 Center     Atomic      Atomic             Coordinates (Angstroms)
 Number     Number       Type             X           Y           Z
 ---------------------------------------------------------------------
      1          7           0        0.781753    1.592964   -0.000000
      2          6           0        0.000000    0.686472    0.000000
      3         16           0       -0.342017   -0.954349   -0.000000
 ---------------------------------------------------------------------
 Rotational constants (GHZ):         469.9596508           6.1986738           6.1179788
 Leave Link  202 at Wed May  4 19:05:48 2022, MaxMem=   754974720 cpu:               0.2 elap:               0.1
 (Enter /opt/cluster/programs/g16-c.01/g16/l301.exe)
 Standard basis: Aug-CC-pVTZ (5D, 7F)
 Ernie: Thresh=  0.10000D-02 Tol=  0.10000D-05 Strict=F.
 Ernie:  19 primitive shells out of 124 were deleted.
 There are   114 symmetry adapted cartesian basis functions of A'  symmetry.
 There are    55 symmetry adapted cartesian basis functions of A"  symmetry.
 There are    93 symmetry adapted basis functions of A'  symmetry.
 There are    49 symmetry adapted basis functions of A"  symmetry.
   142 basis functions,   258 primitive gaussians,   169 cartesian basis functions
    15 alpha electrons       15 beta electrons
       nuclear repulsion energy        70.1638884809 Hartrees.
 IExCor=    0 DFT=F Ex=HF Corr=None ExCW=0 ScaHFX=  1.000000
 ScaDFX=  1.000000  1.000000  1.000000  1.000000 ScalE2=  1.000000  1.000000
 IRadAn=      5 IRanWt=     -1 IRanGd=            0 ICorTp=0 IEmpDi=  4
 NAtoms=    3 NActive=    3 NUniq=    3 SFac= 1.00D+00 NAtFMM=   60 NAOKFM=F Big=F
 Integral buffers will be    131072 words long.
 Raffenetti 1 integral format.
 Two-electron integral symmetry is turned on.
 Leave Link  301 at Wed May  4 19:05:48 2022, MaxMem=   754974720 cpu:               0.2 elap:               0.1
 (Enter /opt/cluster/programs/g16-c.01/g16/l302.exe)
 NPDir=0 NMtPBC=     1 NCelOv=     1 NCel=       1 NClECP=     1 NCelD=      1
         NCelK=      1 NCelE2=     1 NClLst=     1 CellRange=     0.0.
 One-electron integrals computed using PRISM.
 One-electron integral symmetry used in STVInt
 NBasis=   142 RedAO= T EigKep=  1.07D-04  NBF=    93    49
 NBsUse=   142 1.00D-06 EigRej= -1.00D+00 NBFU=    93    49
 Leave Link  302 at Wed May  4 19:05:50 2022, MaxMem=   754974720 cpu:               7.2 elap:               2.4
 (Enter /opt/cluster/programs/g16-c.01/g16/l303.exe)
 DipDrv:  MaxL=1.
 Leave Link  303 at Wed May  4 19:05:50 2022, MaxMem=   754974720 cpu:               0.2 elap:               0.1
 (Enter /opt/cluster/programs/g16-c.01/g16/l401.exe)
 Initial guess from the checkpoint file:  "gaussian_7_scn.chk"
 B after Tr=    -0.000000    0.000000    0.000000
         Rot=    1.000000    0.000000   -0.000000   -0.000946 Ang=  -0.11 deg.
 Guess basis will be translated and rotated to current coordinates.
 JPrj=2 DoOrth=T DoCkMO=T.
 Initial guess orbital symmetries:
       Occupied  (A') (A') (A') (A') (A') (A") (A') (A') (A') (A')
                 (A') (A") (A') (A") (A')
       Virtual   (A') (A') (A') (A") (A') (A") (A') (A") (A') (A')
                 (A') (A') (A") (A') (A') (A") (A') (A') (A") (A')
                 (A") (A') (A') (A") (A') (A') (A") (A') (A') (A")
                 (A') (A') (A") (A') (A") (A') (A") (A') (A') (A")
                 (A') (A') (A") (A') (A') (A") (A') (A") (A') (A")
                 (A') (A') (A") (A') (A') (A") (A') (A") (A') (A')
                 (A') (A") (A') (A") (A') (A") (A') (A") (A') (A')
                 (A') (A") (A') (A") (A') (A") (A') (A') (A') (A")
                 (A") (A') (A") (A') (A') (A") (A') (A") (A') (A')
                 (A') (A") (A') (A') (A") (A') (A") (A') (A") (A')
                 (A') (A") (A') (A") (A') (A") (A') (A') (A') (A")
                 (A') (A') (A") (A') (A') (A") (A") (A') (A') (A")
                 (A') (A") (A') (A') (A') (A') (A')
 The electronic state of the initial guess is 1-A'.
 Generating alternative initial guess.
 ExpMin= 3.51D-02 ExpMax= 3.74D+05 ExpMxC= 1.18D+03 IAcc=3 IRadAn=         5 AccDes= 0.00D+00
 Harris functional with IExCor=  205 and IRadAn=       5 diagonalized for initial guess.
 HarFok:  IExCor=  205 AccDes= 0.00D+00 IRadAn=         5 IDoV= 1 UseB2=F ITyADJ=14
 ICtDFT=  3500011 ScaDFX=  1.000000  1.000000  1.000000  1.000000
 FoFCou: FMM=F IPFlag=           0 FMFlag=      100000 FMFlg1=           0
         NFxFlg=           0 DoJE=T BraDBF=F KetDBF=T FulRan=T
         wScrn=  0.000000 ICntrl=       500 IOpCl=  0 I1Cent=   200000004 NGrid=           0
         NMat0=    1 NMatS0=      1 NMatT0=    0 NMatD0=    1 NMtDS0=    0 NMtDT0=    0
 Petite list used in FoFCou.
 Harris En= -489.748807981919    
 Leave Link  401 at Wed May  4 19:05:51 2022, MaxMem=   754974720 cpu:               3.3 elap:               1.1
 (Enter /opt/cluster/programs/g16-c.01/g16/l502.exe)
 Keep R1 ints in memory in symmetry-blocked form, NReq=77616006.
 FoFCou: FMM=F IPFlag=           0 FMFlag=           0 FMFlg1=           0
         NFxFlg=           0 DoJE=F BraDBF=F KetDBF=F FulRan=T
         wScrn=  0.000000 ICntrl=       600 IOpCl=  0 I1Cent=           0 NGrid=           0
         NMat0=    1 NMatS0=  10153 NMatT0=    0 NMatD0=    1 NMtDS0=    0 NMtDT0=    0
 Petite list used in FoFCou.
 Closed shell SCF:
 Using DIIS extrapolation, IDIIS=  1040.
 NGot=   754974720 LenX=   728846748 LenY=   728817746
 Requested convergence on RMS density matrix=1.00D-08 within 200 cycles.
 Requested convergence on MAX density matrix=1.00D-06.
 Requested convergence on             energy=1.00D-06.
 No special actions if energy rises.

 Cycle   1  Pass 1  IDiag  1:
 E= -489.924663659416    
 DIIS: error= 6.83D-04 at cycle   1 NSaved=   1.
 NSaved= 1 IEnMin= 1 EnMin= -489.924663659416     IErMin= 1 ErrMin= 6.83D-04
 ErrMax= 6.83D-04  0.00D+00 EMaxC= 1.00D-01 BMatC= 6.71D-05 BMatP= 6.71D-05
 IDIUse=3 WtCom= 9.93D-01 WtEn= 6.83D-03
 Coeff-Com:  0.100D+01
 Coeff-En:   0.100D+01
 Coeff:      0.100D+01
 Gap=     0.309 Goal=   None    Shift=    0.000
 RMSDP=8.36D-05 MaxDP=2.04D-03              OVMax= 2.79D-03

 Cycle   2  Pass 1  IDiag  1:
 E= -489.924738817695     Delta-E=       -0.000075158279 Rises=F Damp=F
 DIIS: error= 4.24D-04 at cycle   2 NSaved=   2.
 NSaved= 2 IEnMin= 2 EnMin= -489.924738817695     IErMin= 2 ErrMin= 4.24D-04
 ErrMax= 4.24D-04  0.00D+00 EMaxC= 1.00D-01 BMatC= 8.91D-06 BMatP= 6.71D-05
 IDIUse=3 WtCom= 9.96D-01 WtEn= 4.24D-03
 Coeff-Com:  0.129D+00 0.871D+00
 Coeff-En:   0.000D+00 0.100D+01
 Coeff:      0.129D+00 0.871D+00
 Gap=     0.308 Goal=   None    Shift=    0.000
 RMSDP=2.52D-05 MaxDP=6.56D-04 DE=-7.52D-05 OVMax= 1.47D-03

 Cycle   3  Pass 1  IDiag  1:
 E= -489.924749055098     Delta-E=       -0.000010237402 Rises=F Damp=F
 DIIS: error= 2.38D-04 at cycle   3 NSaved=   3.
 NSaved= 3 IEnMin= 3 EnMin= -489.924749055098     IErMin= 3 ErrMin= 2.38D-04
 ErrMax= 2.38D-04  0.00D+00 EMaxC= 1.00D-01 BMatC= 2.35D-06 BMatP= 8.91D-06
 IDIUse=3 WtCom= 9.98D-01 WtEn= 2.38D-03
 Coeff-Com: -0.735D-01 0.259D+00 0.814D+00
 Coeff-En:   0.000D+00 0.000D+00 0.100D+01
 Coeff:     -0.734D-01 0.259D+00 0.815D+00
 Gap=     0.308 Goal=   None    Shift=    0.000
 RMSDP=8.66D-06 MaxDP=2.13D-04 DE=-1.02D-05 OVMax= 6.85D-04

 Cycle   4  Pass 1  IDiag  1:
 E= -489.924752157337     Delta-E=       -0.000003102239 Rises=F Damp=F
 DIIS: error= 6.80D-05 at cycle   4 NSaved=   4.
 NSaved= 4 IEnMin= 4 EnMin= -489.924752157337     IErMin= 4 ErrMin= 6.80D-05
 ErrMax= 6.80D-05  0.00D+00 EMaxC= 1.00D-01 BMatC= 3.07D-07 BMatP= 2.35D-06
 IDIUse=1 WtCom= 1.00D+00 WtEn= 0.00D+00
 Coeff-Com: -0.325D-01-0.214D-01 0.244D+00 0.810D+00
 Coeff:     -0.325D-01-0.214D-01 0.244D+00 0.810D+00
 Gap=     0.308 Goal=   None    Shift=    0.000
 RMSDP=4.65D-06 MaxDP=9.48D-05 DE=-3.10D-06 OVMax= 3.11D-04

 Cycle   5  Pass 1  IDiag  1:
 E= -489.924752675340     Delta-E=       -0.000000518003 Rises=F Damp=F
 DIIS: error= 2.69D-05 at cycle   5 NSaved=   5.
 NSaved= 5 IEnMin= 5 EnMin= -489.924752675340     IErMin= 5 ErrMin= 2.69D-05
 ErrMax= 2.69D-05  0.00D+00 EMaxC= 1.00D-01 BMatC= 4.60D-08 BMatP= 3.07D-07
 IDIUse=1 WtCom= 1.00D+00 WtEn= 0.00D+00
 Coeff-Com:  0.124D-01-0.613D-01-0.134D+00 0.113D+00 0.107D+01
 Coeff:      0.124D-01-0.613D-01-0.134D+00 0.113D+00 0.107D+01
 Gap=     0.308 Goal=   None    Shift=    0.000
 RMSDP=2.99D-06 MaxDP=8.29D-05 DE=-5.18D-07 OVMax= 1.75D-04

 Cycle   6  Pass 1  IDiag  1:
 E= -489.924752799891     Delta-E=       -0.000000124551 Rises=F Damp=F
 DIIS: error= 5.73D-06 at cycle   6 NSaved=   6.
 NSaved= 6 IEnMin= 6 EnMin= -489.924752799891     IErMin= 6 ErrMin= 5.73D-06
 ErrMax= 5.73D-06  0.00D+00 EMaxC= 1.00D-01 BMatC= 3.28D-09 BMatP= 4.60D-08
 IDIUse=1 WtCom= 1.00D+00 WtEn= 0.00D+00
 Coeff-Com:  0.313D-02 0.403D-02-0.266D-01-0.692D-01-0.137D-01 0.110D+01
 Coeff:      0.313D-02 0.403D-02-0.266D-01-0.692D-01-0.137D-01 0.110D+01
 Gap=     0.308 Goal=   None    Shift=    0.000
 RMSDP=9.24D-07 MaxDP=2.61D-05 DE=-1.25D-07 OVMax= 6.44D-05

 Cycle   7  Pass 1  IDiag  1:
 E= -489.924752811690     Delta-E=       -0.000000011800 Rises=F Damp=F
 DIIS: error= 3.02D-06 at cycle   7 NSaved=   7.
 NSaved= 7 IEnMin= 7 EnMin= -489.924752811690     IErMin= 7 ErrMin= 3.02D-06
 ErrMax= 3.02D-06  0.00D+00 EMaxC= 1.00D-01 BMatC= 5.03D-10 BMatP= 3.28D-09
 IDIUse=1 WtCom= 1.00D+00 WtEn= 0.00D+00
 Coeff-Com: -0.146D-02 0.904D-02 0.129D-01-0.116D-01-0.161D+00 0.793D-01
 Coeff-Com:  0.107D+01
 Coeff:     -0.146D-02 0.904D-02 0.129D-01-0.116D-01-0.161D+00 0.793D-01
 Coeff:      0.107D+01
 Gap=     0.308 Goal=   None    Shift=    0.000
 RMSDP=3.98D-07 MaxDP=1.39D-05 DE=-1.18D-08 OVMax= 2.26D-05

 Cycle   8  Pass 1  IDiag  1:
 E= -489.924752813140     Delta-E=       -0.000000001449 Rises=F Damp=F
 DIIS: error= 6.32D-07 at cycle   8 NSaved=   8.
 NSaved= 8 IEnMin= 8 EnMin= -489.924752813140     IErMin= 8 ErrMin= 6.32D-07
 ErrMax= 6.32D-07  0.00D+00 EMaxC= 1.00D-01 BMatC= 2.91D-11 BMatP= 5.03D-10
 IDIUse=1 WtCom= 1.00D+00 WtEn= 0.00D+00
 Coeff-Com:  0.121D-03-0.176D-02-0.142D-02 0.740D-02 0.265D-01-0.583D-01
 Coeff-Com: -0.269D+00 0.130D+01
 Coeff:      0.121D-03-0.176D-02-0.142D-02 0.740D-02 0.265D-01-0.583D-01
 Coeff:     -0.269D+00 0.130D+01
 Gap=     0.308 Goal=   None    Shift=    0.000
 RMSDP=1.39D-07 MaxDP=5.77D-06 DE=-1.45D-09 OVMax= 7.84D-06

 Cycle   9  Pass 1  IDiag  1:
 E= -489.924752813268     Delta-E=       -0.000000000128 Rises=F Damp=F
 DIIS: error= 3.28D-07 at cycle   9 NSaved=   9.
 NSaved= 9 IEnMin= 9 EnMin= -489.924752813268     IErMin= 9 ErrMin= 3.28D-07
 ErrMax= 3.28D-07  0.00D+00 EMaxC= 1.00D-01 BMatC= 4.70D-12 BMatP= 2.91D-11
 IDIUse=1 WtCom= 1.00D+00 WtEn= 0.00D+00
 Coeff-Com:  0.107D-03-0.355D-03-0.941D-03-0.267D-03 0.809D-02 0.858D-02
 Coeff-Com: -0.244D-01-0.409D+00 0.142D+01
 Coeff:      0.107D-03-0.355D-03-0.941D-03-0.267D-03 0.809D-02 0.858D-02
 Coeff:     -0.244D-01-0.409D+00 0.142D+01
 Gap=     0.308 Goal=   None    Shift=    0.000
 RMSDP=5.84D-08 MaxDP=2.26D-06 DE=-1.28D-10 OVMax= 3.93D-06

 Cycle  10  Pass 1  IDiag  1:
 E= -489.924752813298     Delta-E=       -0.000000000031 Rises=F Damp=F
 DIIS: error= 1.92D-07 at cycle  10 NSaved=  10.
 NSaved=10 IEnMin=10 EnMin= -489.924752813298     IErMin=10 ErrMin= 1.92D-07
 ErrMax= 1.92D-07  0.00D+00 EMaxC= 1.00D-01 BMatC= 1.02D-12 BMatP= 4.70D-12
 IDIUse=1 WtCom= 1.00D+00 WtEn= 0.00D+00
 Coeff-Com: -0.351D-04 0.316D-03 0.291D-03-0.928D-03-0.610D-02 0.741D-02
 Coeff-Com:  0.479D-01-0.103D+00-0.382D+00 0.144D+01
 Coeff:     -0.351D-04 0.316D-03 0.291D-03-0.928D-03-0.610D-02 0.741D-02
 Coeff:      0.479D-01-0.103D+00-0.382D+00 0.144D+01
 Gap=     0.308 Goal=   None    Shift=    0.000
 RMSDP=2.48D-08 MaxDP=7.20D-07 DE=-3.06D-11 OVMax= 2.06D-06

 Cycle  11  Pass 1  IDiag  1:
 E= -489.924752813305     Delta-E=       -0.000000000007 Rises=F Damp=F
 DIIS: error= 8.78D-08 at cycle  11 NSaved=  11.
 NSaved=11 IEnMin=11 EnMin= -489.924752813305     IErMin=11 ErrMin= 8.78D-08
 ErrMax= 8.78D-08  0.00D+00 EMaxC= 1.00D-01 BMatC= 2.24D-13 BMatP= 1.02D-12
 IDIUse=1 WtCom= 1.00D+00 WtEn= 0.00D+00
 Coeff-Com: -0.767D-05-0.480D-04 0.980D-04 0.372D-03 0.721D-03-0.431D-02
 Coeff-Com: -0.128D-01 0.114D+00-0.115D+00-0.623D+00 0.164D+01
 Coeff:     -0.767D-05-0.480D-04 0.980D-04 0.372D-03 0.721D-03-0.431D-02
 Coeff:     -0.128D-01 0.114D+00-0.115D+00-0.623D+00 0.164D+01
 Gap=     0.308 Goal=   None    Shift=    0.000
 RMSDP=1.16D-08 MaxDP=2.67D-07 DE=-6.71D-12 OVMax= 1.05D-06

 Cycle  12  Pass 1  IDiag  1:
 E= -489.924752813306     Delta-E=       -0.000000000001 Rises=F Damp=F
 DIIS: error= 2.65D-08 at cycle  12 NSaved=  12.
 NSaved=12 IEnMin=12 EnMin= -489.924752813306     IErMin=12 ErrMin= 2.65D-08
 ErrMax= 2.65D-08  0.00D+00 EMaxC= 1.00D-01 BMatC= 3.34D-14 BMatP= 2.24D-13
 IDIUse=1 WtCom= 1.00D+00 WtEn= 0.00D+00
 Coeff-Com:  0.103D-04-0.568D-04-0.850D-04 0.826D-04 0.115D-02-0.672D-03
 Coeff-Com: -0.511D-02-0.210D-01 0.151D+00-0.151D+00-0.535D+00 0.156D+01
 Coeff:      0.103D-04-0.568D-04-0.850D-04 0.826D-04 0.115D-02-0.672D-03
 Coeff:     -0.511D-02-0.210D-01 0.151D+00-0.151D+00-0.535D+00 0.156D+01
 Gap=     0.308 Goal=   None    Shift=    0.000
 RMSDP=4.46D-09 MaxDP=1.13D-07 DE=-1.36D-12 OVMax= 3.73D-07

 SCF Done:  E(RHF) =  -489.924752813     A.U. after   12 cycles
            NFock= 12  Conv=0.45D-08     -V/T= 2.0005
 KE= 4.896677996276D+02 PE=-1.310767874384D+03 EE= 2.610114334621D+02
 Leave Link  502 at Wed May  4 19:05:55 2022, MaxMem=   754974720 cpu:              12.5 elap:               3.4
 (Enter /opt/cluster/programs/g16-c.01/g16/l801.exe)
 ExpMin= 3.51D-02 ExpMax= 3.74D+05 ExpMxC= 1.18D+03 IAcc=3 IRadAn=         5 AccDes= 0.00D+00
 HarFok:  IExCor=  205 AccDes= 0.00D+00 IRadAn=         5 IDoV=-2 UseB2=F ITyADJ=14
 ICtDFT= 12500011 ScaDFX=  1.000000  1.000000  1.000000  1.000000
 Largest valence mixing into a core orbital is  5.37D-04
 Largest core mixing into a valence orbital is  1.41D-04
 Range of M.O.s used for correlation:     8   142
 NBasis=   142 NAE=    15 NBE=    15 NFC=     7 NFV=     0
 NROrb=    135 NOA=     8 NOB=     8 NVA=   127 NVB=   127

 **** Warning!!: The largest alpha MO coefficient is  0.18493301D+02

 Leave Link  801 at Wed May  4 19:05:55 2022, MaxMem=   754974720 cpu:               0.5 elap:               0.1
 (Enter /opt/cluster/programs/g16-c.01/g16/l906.exe)
 Frozen-core derivative calculation, NFC=   7 NFV=   0.
 FulOut=F Deriv=T AODrv=T NAtomX=     3
   MMem=          74  MDisk=           8 MDiskD=           8
  W3Min=      359970 MinDsk=      723803 NBas6D=         169
 NBas2D=       14809    NTT=       14365    LW2=     3500000
    MDV=   754677629 MDiskM=       22268 NBas2p=       14795
 Fully direct method using O(ONN) memory.
 IMap=   1   2   3   4   5   6   7   8   9  10  11  12  13  14  15
 JobTyp=1 Pass  1:  I=   8 to  15 NPSUse=  4 ParTrn=T ParDer=T DoDerP=T.
 Spin components of T(2) and E(2):
     alpha-alpha T2 =       0.2946093614D-01 E2=     -0.6975989087D-01
     alpha-beta  T2 =       0.1555971025D+00 E2=     -0.3974918542D+00
     beta-beta   T2 =       0.2946093614D-01 E2=     -0.6975989087D-01
 The integrals were generated   1 times.
 ANorm=    0.1102052165D+01
 E2 =    -0.5370116359D+00 EUMP2 =    -0.49046176444922D+03
 Leave Link  906 at Wed May  4 19:06:03 2022, MaxMem=   754974720 cpu:              33.4 elap:               8.3
 (Enter /opt/cluster/programs/g16-c.01/g16/l1002.exe)
 Minotr:  Closed shell wavefunction.
          Computing MP2/KS-MP2 derivatives.
          Using Z-Vector for PSCF gradient.
          Skipping F1 and S1 gradient terms here.
          IDoAtm=111
          Frozen-core window.
          Direct CPHF calculation.
          Differentiating once with respect to electric field.
                with respect to dipole field.
          Differentiating once with respect to nuclear coordinates.
          Using symmetry in CPHF.
          Requested convergence is 1.0D-10 RMS, and 1.0D-09 maximum.
          NewPWx=F KeepS1=T KeepF1=T KeepIn=T MapXYZ=F SortEE=F KeepMc=T.
 Keep R1 ints in memory in symmetry-blocked form, NReq=77616884.
 FoFCou: FMM=F IPFlag=           0 FMFlag=           0 FMFlg1=           0
         NFxFlg=           0 DoJE=F BraDBF=F KetDBF=F FulRan=T
         wScrn=  0.000000 ICntrl=       600 IOpCl=  0 I1Cent=           0 NGrid=           0
         NMat0=    1 NMatS0=  10153 NMatT0=    0 NMatD0=    1 NMtDS0=    0 NMtDT0=    0
 Petite list used in FoFCou.
          MDV=     754974720 using IRadAn=       5.
          Solving linear equations separately, MaxMat=       0.
          There are     1 degrees of freedom in the 1st order CPHF.  IDoFFX=0 NUNeed=     1.
 LinEq1:  Iter=  0 NonCon=     1 RMS=5.09D-03 Max=8.77D-02 NDo=     1
 AX will form     1 AO Fock derivatives at one time.
 LinEq1:  Iter=  1 NonCon=     1 RMS=1.76D-03 Max=1.73D-02 NDo=     1
 LinEq1:  Iter=  2 NonCon=     1 RMS=6.48D-04 Max=8.84D-03 NDo=     1
 LinEq1:  Iter=  3 NonCon=     1 RMS=3.61D-04 Max=5.66D-03 NDo=     1
 LinEq1:  Iter=  4 NonCon=     1 RMS=1.90D-04 Max=4.79D-03 NDo=     1
 LinEq1:  Iter=  5 NonCon=     1 RMS=7.10D-05 Max=8.11D-04 NDo=     1
 LinEq1:  Iter=  6 NonCon=     1 RMS=2.06D-05 Max=2.54D-04 NDo=     1
 LinEq1:  Iter=  7 NonCon=     1 RMS=4.90D-06 Max=5.91D-05 NDo=     1
 LinEq1:  Iter=  8 NonCon=     1 RMS=1.04D-06 Max=9.83D-06 NDo=     1
 LinEq1:  Iter=  9 NonCon=     1 RMS=2.96D-07 Max=4.09D-06 NDo=     1
 LinEq1:  Iter= 10 NonCon=     1 RMS=6.74D-08 Max=8.24D-07 NDo=     1
 LinEq1:  Iter= 11 NonCon=     1 RMS=1.40D-08 Max=1.13D-07 NDo=     1
 LinEq1:  Iter= 12 NonCon=     1 RMS=2.76D-09 Max=2.98D-08 NDo=     1
 LinEq1:  Iter= 13 NonCon=     1 RMS=4.52D-10 Max=5.18D-09 NDo=     1
 LinEq1:  Iter= 14 NonCon=     0 RMS=7.79D-11 Max=8.80D-10 NDo=     1
 Linear equations converged to 1.000D-10 1.000D-09 after    14 iterations.
 End of Minotr F.D. properties file   721 does not exist.
 End of Minotr F.D. properties file   722 does not exist.
 End of Minotr F.D. properties file   788 does not exist.
 Leave Link 1002 at Wed May  4 19:06:07 2022, MaxMem=   754974720 cpu:              13.2 elap:               3.6
 (Enter /opt/cluster/programs/g16-c.01/g16/l701.exe)
 ... and contract with generalized density number  2.
 Compute integral first derivatives.
 Leave Link  701 at Wed May  4 19:06:07 2022, MaxMem=   754974720 cpu:               0.7 elap:               0.2
 (Enter /opt/cluster/programs/g16-c.01/g16/l702.exe)
 L702 exits ... SP integral derivatives will be done elsewhere.
 Leave Link  702 at Wed May  4 19:06:07 2022, MaxMem=   754974720 cpu:               0.1 elap:               0.0
 (Enter /opt/cluster/programs/g16-c.01/g16/l703.exe)
 Integral derivatives from FoFJK, PRISM(SPDF).
 Compute integral first derivatives, UseDBF=F ICtDFT=           0.
 Calling FoFJK, ICntrl=  10002127 FMM=F ISym2X=1 I1Cent= 0 IOpClX= 0 NMat=1 NMatS=1 NMatT=0.
 FoFJK:  IHMeth= 1 ICntrl=10002127 DoSepK=F KAlg= 0 I1Cent=           0 FoldK=F
 IRaf=         0 NMat=       1 IRICut=       1 DoRegI=T DoRafI=F ISym2E= 1 IDoP0=0 IntGTp=1.
 FoFCou: FMM=F IPFlag=           0 FMFlag=      100000 FMFlg1=         800
         NFxFlg=           0 DoJE=F BraDBF=F KetDBF=F FulRan=T
         wScrn=  0.000000 ICntrl=  10002127 IOpCl=  0 I1Cent=           0 NGrid=           0
         NMat0=    1 NMatS0=      1 NMatT0=    0 NMatD0=    1 NMtDS0=    0 NMtDT0=    0
 Petite list used in FoFCou.
 Leave Link  703 at Wed May  4 19:06:11 2022, MaxMem=   754974720 cpu:              17.5 elap:               4.4
 (Enter /opt/cluster/programs/g16-c.01/g16/l716.exe)
 Dipole        =-2.08878410D-01-3.91043049D-01 7.14356000D-32
 ***** Axes restored to original set *****
 -------------------------------------------------------------------
 Center     Atomic                   Forces (Hartrees/Bohr)
 Number     Number              X              Y              Z
 -------------------------------------------------------------------
      1        7          -0.027804351    0.000000000   -0.000199316
      2        6           0.044107699   -0.000000000   -0.011349547
      3       16          -0.016303348    0.000000000    0.011548863
 -------------------------------------------------------------------
 Cartesian Forces:  Max     0.044107699 RMS     0.018992977
 Leave Link  716 at Wed May  4 19:06:12 2022, MaxMem=   754974720 cpu:               0.2 elap:               0.0
 (Enter /opt/cluster/programs/g16-c.01/g16/l103.exe)

 GradGradGradGradGradGradGradGradGradGradGradGradGradGradGradGradGradGrad
 Berny optimization.
 Using GEDIIS/GDIIS optimizer.
 FormGI is forming the generalized inverse of G from B-inverse, IUseBI=4.
 Internal  Forces:  Max     0.062894954 RMS     0.036334892
 Search for a local minimum.
 Step number   2 out of a maximum of   20
 All quantities printed in internal units (Hartrees-Bohrs-Radians)
 RMS Force = .15649D-02 SwitMx=.10000D-02 MixMth= 1
 Mixed Optimization -- RFO/linear search
 Update second derivatives using D2CorX and points    1    2
 DE= -2.40D-04 DEPred=-2.10D-04 R= 1.14D+00
 TightC=F SS=  1.41D+00  RLast= 2.99D-02 DXNew= 5.0454D-01 8.9706D-02
 Trust test= 1.14D+00 RLast= 2.99D-02 DXMaxT set to 3.00D-01
 The second derivative matrix:
                          R1        R2        A1
           R1           1.11743
           R2          -0.01565   0.33837
           A1           0.04578   0.04637   0.25841
 ITU=  1  0
 Use linear search instead of GDIIS.
     Eigenvalues ---    0.33806   1.117751000.00000
 RFO step:  Lambda=-2.84399338D-06 EMin= 3.38056212D-01
 Quartic linear search produced a step of  0.18994.
 Iteration  1 RMS(Cart)=  0.00324579 RMS(Int)=  0.00000019
 Iteration  2 RMS(Cart)=  0.00000021 RMS(Int)=  0.00000000
 Iteration  1 RMS(Cart)=  0.00000000 RMS(Int)=  0.00000000
 ITry= 1 IFail=0 DXMaxC= 4.23D-03 DCOld= 1.00D+10 DXMaxT= 3.00D-01 DXLimC= 3.00D+00 Rises=F
 ClnCor:  largest displacement from symmetrization is 2.33D-15 for atom     1.
 Variable       Old X    -DE/DX   Delta X   Delta X   Delta X     New X
                                 (Linear)    (Quad)   (Total)
    R1        2.26205   0.00019   0.00168  -0.00139   0.00029   2.26234
    R2        3.16735   0.00221   0.00543   0.00137   0.00680   3.17414
    A1        2.63545   0.06289   0.00000   0.00000  -0.00000   2.63545
         Item               Value     Threshold  Converged?
 Maximum Force            0.002205     0.000450     NO 
 RMS     Force            0.001565     0.000300     NO 
 Maximum Displacement     0.004227     0.001800     NO 
 RMS     Displacement     0.003246     0.001200     NO 
 Predicted change in Energy=-7.210612D-06
 Lowest energy point so far.  Saving SCF results.
 GradGradGradGradGradGradGradGradGradGradGradGradGradGradGradGradGradGrad

 Leave Link  103 at Wed May  4 19:06:12 2022, MaxMem=   754974720 cpu:               0.3 elap:               0.1
 (Enter /opt/cluster/programs/g16-c.01/g16/l202.exe)
                          Input orientation:                          
 ---------------------------------------------------------------------
 Center     Atomic      Atomic             Coordinates (Angstroms)
 Number     Number       Type             X           Y           Z
 ---------------------------------------------------------------------
      1          7           0       -0.002275   -0.000000   -1.829770
      2          6           0       -0.002972    0.000000   -0.632594
      3         16           0        0.810500   -0.000000    0.836964
 ---------------------------------------------------------------------
                    Distance matrix (angstroms):
                    1          2          3
     1  N    0.000000
     2  C    1.197176   0.000000
     3  S    2.787844   1.679684   0.000000
 Stoichiometry    CNS(1-)
 Framework group  CS[SG(CNS)]
 Deg. of freedom     3
 Full point group                 CS      NOp   2
 RotChk:  IX=0 Diff= 1.01D-03
 Largest Abelian subgroup         CS      NOp   2
 Largest concise Abelian subgroup C1      NOp   1
                         Standard orientation:                         
 ---------------------------------------------------------------------
 Center     Atomic      Atomic             Coordinates (Angstroms)
 Number     Number       Type             X           Y           Z
 ---------------------------------------------------------------------
      1          7           0        0.781351    1.595427   -0.000000
      2          6           0       -0.000000    0.688387   -0.000000
      3         16           0       -0.341841   -0.956144    0.000000
 ---------------------------------------------------------------------
 Rotational constants (GHZ):         469.1889106           6.1807233           6.1003620
 Leave Link  202 at Wed May  4 19:06:12 2022, MaxMem=   754974720 cpu:               0.1 elap:               0.0
 (Enter /opt/cluster/programs/g16-c.01/g16/l301.exe)
 Standard basis: Aug-CC-pVTZ (5D, 7F)
 Ernie: Thresh=  0.10000D-02 Tol=  0.10000D-05 Strict=F.
 Ernie:  19 primitive shells out of 124 were deleted.
 There are   114 symmetry adapted cartesian basis functions of A'  symmetry.
 There are    55 symmetry adapted cartesian basis functions of A"  symmetry.
 There are    93 symmetry adapted basis functions of A'  symmetry.
 There are    49 symmetry adapted basis functions of A"  symmetry.
   142 basis functions,   258 primitive gaussians,   169 cartesian basis functions
    15 alpha electrons       15 beta electrons
       nuclear repulsion energy        70.0686579460 Hartrees.
 IExCor=    0 DFT=F Ex=HF Corr=None ExCW=0 ScaHFX=  1.000000
 ScaDFX=  1.000000  1.000000  1.000000  1.000000 ScalE2=  1.000000  1.000000
 IRadAn=      5 IRanWt=     -1 IRanGd=            0 ICorTp=0 IEmpDi=  4
 NAtoms=    3 NActive=    3 NUniq=    3 SFac= 1.00D+00 NAtFMM=   60 NAOKFM=F Big=F
 Integral buffers will be    131072 words long.
 Raffenetti 1 integral format.
 Two-electron integral symmetry is turned on.
 Leave Link  301 at Wed May  4 19:06:12 2022, MaxMem=   754974720 cpu:               0.4 elap:               0.1
 (Enter /opt/cluster/programs/g16-c.01/g16/l302.exe)
 NPDir=0 NMtPBC=     1 NCelOv=     1 NCel=       1 NClECP=     1 NCelD=      1
         NCelK=      1 NCelE2=     1 NClLst=     1 CellRange=     0.0.
 One-electron integrals computed using PRISM.
 One-electron integral symmetry used in STVInt
 NBasis=   142 RedAO= T EigKep=  1.08D-04  NBF=    93    49
 NBsUse=   142 1.00D-06 EigRej= -1.00D+00 NBFU=    93    49
 Leave Link  302 at Wed May  4 19:06:12 2022, MaxMem=   754974720 cpu:               0.6 elap:               0.2
 (Enter /opt/cluster/programs/g16-c.01/g16/l303.exe)
 DipDrv:  MaxL=1.
 Leave Link  303 at Wed May  4 19:06:12 2022, MaxMem=   754974720 cpu:               0.2 elap:               0.0
 (Enter /opt/cluster/programs/g16-c.01/g16/l401.exe)
 Initial guess from the checkpoint file:  "gaussian_7_scn.chk"
 B after Tr=    -0.000000    0.000000   -0.000000
         Rot=    1.000000    0.000000   -0.000000   -0.000368 Ang=  -0.04 deg.
 Guess basis will be translated and rotated to current coordinates.
 JPrj=2 DoOrth=T DoCkMO=T.
 Initial guess orbital symmetries:
       Occupied  (A') (A') (A') (A') (A') (A") (A') (A') (A') (A')
                 (A') (A") (A') (A") (A')
       Virtual   (A') (A') (A') (A") (A') (A") (A') (A") (A') (A')
                 (A') (A') (A") (A') (A') (A") (A') (A') (A") (A')
                 (A") (A') (A') (A") (A') (A') (A") (A') (A') (A")
                 (A') (A') (A") (A') (A") (A') (A") (A') (A') (A")
                 (A') (A') (A") (A') (A') (A") (A') (A") (A') (A")
                 (A') (A') (A") (A') (A') (A") (A') (A") (A') (A')
                 (A') (A") (A') (A") (A') (A") (A') (A") (A') (A')
                 (A') (A") (A') (A") (A') (A") (A') (A') (A') (A")
                 (A") (A') (A") (A') (A') (A") (A') (A") (A') (A')
                 (A') (A") (A') (A') (A") (A') (A") (A') (A") (A')
                 (A') (A") (A') (A") (A') (A") (A') (A') (A') (A")
                 (A') (A') (A") (A') (A') (A") (A") (A') (A') (A")
                 (A') (A") (A') (A') (A') (A') (A')
 The electronic state of the initial guess is 1-A'.
 Leave Link  401 at Wed May  4 19:06:12 2022, MaxMem=   754974720 cpu:               0.5 elap:               0.1
 (Enter /opt/cluster/programs/g16-c.01/g16/l502.exe)
 Keep R1 ints in memory in symmetry-blocked form, NReq=77616006.
 FoFCou: FMM=F IPFlag=           0 FMFlag=           0 FMFlg1=           0
         NFxFlg=           0 DoJE=F BraDBF=F KetDBF=F FulRan=T
         wScrn=  0.000000 ICntrl=       600 IOpCl=  0 I1Cent=           0 NGrid=           0
         NMat0=    1 NMatS0=  10153 NMatT0=    0 NMatD0=    1 NMtDS0=    0 NMtDT0=    0
 Petite list used in FoFCou.
 Closed shell SCF:
 Using DIIS extrapolation, IDIIS=  1040.
 NGot=   754974720 LenX=   728846748 LenY=   728817746
 Requested convergence on RMS density matrix=1.00D-08 within 200 cycles.
 Requested convergence on MAX density matrix=1.00D-06.
 Requested convergence on             energy=1.00D-06.
 No special actions if energy rises.

 Cycle   1  Pass 1  IDiag  1:
 E= -489.924785409870    
 DIIS: error= 1.62D-04 at cycle   1 NSaved=   1.
 NSaved= 1 IEnMin= 1 EnMin= -489.924785409870     IErMin= 1 ErrMin= 1.62D-04
 ErrMax= 1.62D-04  0.00D+00 EMaxC= 1.00D-01 BMatC= 2.86D-06 BMatP= 2.86D-06
 IDIUse=3 WtCom= 9.98D-01 WtEn= 1.62D-03
 Coeff-Com:  0.100D+01
 Coeff-En:   0.100D+01
 Coeff:      0.100D+01
 Gap=     0.308 Goal=   None    Shift=    0.000
 RMSDP=1.63D-05 MaxDP=3.50D-04              OVMax= 5.80D-04

 Cycle   2  Pass 1  IDiag  1:
 E= -489.924789312463     Delta-E=       -0.000003902593 Rises=F Damp=F
 DIIS: error= 8.42D-05 at cycle   2 NSaved=   2.
 NSaved= 2 IEnMin= 2 EnMin= -489.924789312463     IErMin= 2 ErrMin= 8.42D-05
 ErrMax= 8.42D-05  0.00D+00 EMaxC= 1.00D-01 BMatC= 4.24D-07 BMatP= 2.86D-06
 IDIUse=1 WtCom= 1.00D+00 WtEn= 0.00D+00
 Coeff-Com:  0.109D+00 0.891D+00
 Coeff:      0.109D+00 0.891D+00
 Gap=     0.308 Goal=   None    Shift=    0.000
 RMSDP=5.77D-06 MaxDP=1.41D-04 DE=-3.90D-06 OVMax= 2.97D-04

 Cycle   3  Pass 1  IDiag  1:
 E= -489.924789830653     Delta-E=       -0.000000518191 Rises=F Damp=F
 DIIS: error= 5.63D-05 at cycle   3 NSaved=   3.
 NSaved= 3 IEnMin= 3 EnMin= -489.924789830653     IErMin= 3 ErrMin= 5.63D-05
 ErrMax= 5.63D-05  0.00D+00 EMaxC= 1.00D-01 BMatC= 1.64D-07 BMatP= 4.24D-07
 IDIUse=1 WtCom= 1.00D+00 WtEn= 0.00D+00
 Coeff-Com: -0.931D-01 0.337D+00 0.756D+00
 Coeff:     -0.931D-01 0.337D+00 0.756D+00
 Gap=     0.308 Goal=   None    Shift=    0.000
 RMSDP=2.13D-06 MaxDP=4.77D-05 DE=-5.18D-07 OVMax= 1.63D-04

 Cycle   4  Pass 1  IDiag  1:
 E= -489.924790039394     Delta-E=       -0.000000208741 Rises=F Damp=F
 DIIS: error= 1.75D-05 at cycle   4 NSaved=   4.
 NSaved= 4 IEnMin= 4 EnMin= -489.924790039394     IErMin= 4 ErrMin= 1.75D-05
 ErrMax= 1.75D-05  0.00D+00 EMaxC= 1.00D-01 BMatC= 1.27D-08 BMatP= 1.64D-07
 IDIUse=1 WtCom= 1.00D+00 WtEn= 0.00D+00
 Coeff-Com: -0.229D-01-0.439D-01 0.126D+00 0.941D+00
 Coeff:     -0.229D-01-0.439D-01 0.126D+00 0.941D+00
 Gap=     0.308 Goal=   None    Shift=    0.000
 RMSDP=1.18D-06 MaxDP=2.42D-05 DE=-2.09D-07 OVMax= 8.72D-05

 Cycle   5  Pass 1  IDiag  1:
 E= -489.924790071681     Delta-E=       -0.000000032287 Rises=F Damp=F
 DIIS: error= 7.13D-06 at cycle   5 NSaved=   5.
 NSaved= 5 IEnMin= 5 EnMin= -489.924790071681     IErMin= 5 ErrMin= 7.13D-06
 ErrMax= 7.13D-06  0.00D+00 EMaxC= 1.00D-01 BMatC= 2.63D-09 BMatP= 1.27D-08
 IDIUse=1 WtCom= 1.00D+00 WtEn= 0.00D+00
 Coeff-Com:  0.144D-01-0.670D-01-0.129D+00 0.137D+00 0.104D+01
 Coeff:      0.144D-01-0.670D-01-0.129D+00 0.137D+00 0.104D+01
 Gap=     0.308 Goal=   None    Shift=    0.000
 RMSDP=6.96D-07 MaxDP=1.94D-05 DE=-3.23D-08 OVMax= 4.98D-05

 Cycle   6  Pass 1  IDiag  1:
 E= -489.924790079365     Delta-E=       -0.000000007684 Rises=F Damp=F
 DIIS: error= 1.77D-06 at cycle   6 NSaved=   6.
 NSaved= 6 IEnMin= 6 EnMin= -489.924790079365     IErMin= 6 ErrMin= 1.77D-06
 ErrMax= 1.77D-06  0.00D+00 EMaxC= 1.00D-01 BMatC= 2.31D-10 BMatP= 2.63D-09
 IDIUse=1 WtCom= 1.00D+00 WtEn= 0.00D+00
 Coeff-Com:  0.251D-02 0.102D-01-0.209D-01-0.114D+00-0.491D-01 0.117D+01
 Coeff:      0.251D-02 0.102D-01-0.209D-01-0.114D+00-0.491D-01 0.117D+01
 Gap=     0.308 Goal=   None    Shift=    0.000
 RMSDP=2.63D-07 MaxDP=7.35D-06 DE=-7.68D-09 OVMax= 1.66D-05

 Cycle   7  Pass 1  IDiag  1:
 E= -489.924790080221     Delta-E=       -0.000000000856 Rises=F Damp=F
 DIIS: error= 6.42D-07 at cycle   7 NSaved=   7.
 NSaved= 7 IEnMin= 7 EnMin= -489.924790080221     IErMin= 7 ErrMin= 6.42D-07
 ErrMax= 6.42D-07  0.00D+00 EMaxC= 1.00D-01 BMatC= 2.43D-11 BMatP= 2.31D-10
 IDIUse=1 WtCom= 1.00D+00 WtEn= 0.00D+00
 Coeff-Com: -0.132D-02 0.870D-02 0.831D-02-0.195D-01-0.116D+00 0.113D+00
 Coeff-Com:  0.101D+01
 Coeff:     -0.132D-02 0.870D-02 0.831D-02-0.195D-01-0.116D+00 0.113D+00
 Coeff:      0.101D+01
 Gap=     0.308 Goal=   None    Shift=    0.000
 RMSDP=7.74D-08 MaxDP=2.85D-06 DE=-8.56D-10 OVMax= 4.94D-06

 Cycle   8  Pass 1  IDiag  1:
 E= -489.924790080280     Delta-E=       -0.000000000059 Rises=F Damp=F
 DIIS: error= 1.23D-07 at cycle   8 NSaved=   8.
 NSaved= 8 IEnMin= 8 EnMin= -489.924790080280     IErMin= 8 ErrMin= 1.23D-07
 ErrMax= 1.23D-07  0.00D+00 EMaxC= 1.00D-01 BMatC= 1.64D-12 BMatP= 2.43D-11
 IDIUse=1 WtCom= 1.00D+00 WtEn= 0.00D+00
 Coeff-Com:  0.430D-04-0.192D-02 0.200D-03 0.118D-01 0.220D-01-0.106D+00
 Coeff-Com: -0.198D+00 0.127D+01
 Coeff:      0.430D-04-0.192D-02 0.200D-03 0.118D-01 0.220D-01-0.106D+00
 Coeff:     -0.198D+00 0.127D+01
 Gap=     0.308 Goal=   None    Shift=    0.000
 RMSDP=3.07D-08 MaxDP=1.24D-06 DE=-5.93D-11 OVMax= 1.26D-06

 Cycle   9  Pass 1  IDiag  1:
 E= -489.924790080288     Delta-E=       -0.000000000009 Rises=F Damp=F
 DIIS: error= 6.57D-08 at cycle   9 NSaved=   9.
 NSaved= 9 IEnMin= 9 EnMin= -489.924790080288     IErMin= 9 ErrMin= 6.57D-08
 ErrMax= 6.57D-08  0.00D+00 EMaxC= 1.00D-01 BMatC= 2.20D-13 BMatP= 1.64D-12
 IDIUse=1 WtCom= 1.00D+00 WtEn= 0.00D+00
 Coeff-Com:  0.135D-03-0.440D-03-0.101D-02-0.164D-02 0.678D-02 0.211D-01
 Coeff-Com: -0.514D-01-0.373D+00 0.140D+01
 Coeff:      0.135D-03-0.440D-03-0.101D-02-0.164D-02 0.678D-02 0.211D-01
 Coeff:     -0.514D-01-0.373D+00 0.140D+01
 Gap=     0.308 Goal=   None    Shift=    0.000
 RMSDP=8.92D-09 MaxDP=2.72D-07 DE=-8.53D-12 OVMax= 5.11D-07

 SCF Done:  E(RHF) =  -489.924790080     A.U. after    9 cycles
            NFock=  9  Conv=0.89D-08     -V/T= 2.0005
 KE= 4.896594095137D+02 PE=-1.310566762064D+03 EE= 2.609139045238D+02
 Leave Link  502 at Wed May  4 19:06:15 2022, MaxMem=   754974720 cpu:              11.8 elap:               3.2
 (Enter /opt/cluster/programs/g16-c.01/g16/l801.exe)
 ExpMin= 3.51D-02 ExpMax= 3.74D+05 ExpMxC= 1.18D+03 IAcc=3 IRadAn=         5 AccDes= 0.00D+00
 HarFok:  IExCor=  205 AccDes= 0.00D+00 IRadAn=         5 IDoV=-2 UseB2=F ITyADJ=14
 ICtDFT= 12500011 ScaDFX=  1.000000  1.000000  1.000000  1.000000
 DSYEVD-2 returned Info=         101 IAlg= 4 N=    50 NDim=    50 NE2=    15098045 trying  DSYEV.
 Largest valence mixing into a core orbital is  5.38D-04
 Largest core mixing into a valence orbital is  1.41D-04
 Range of M.O.s used for correlation:     8   142
 NBasis=   142 NAE=    15 NBE=    15 NFC=     7 NFV=     0
 NROrb=    135 NOA=     8 NOB=     8 NVA=   127 NVB=   127

 **** Warning!!: The largest alpha MO coefficient is  0.18443389D+02

 Leave Link  801 at Wed May  4 19:06:16 2022, MaxMem=   754974720 cpu:               0.4 elap:               0.1
 (Enter /opt/cluster/programs/g16-c.01/g16/l906.exe)
 Frozen-core derivative calculation, NFC=   7 NFV=   0.
 FulOut=F Deriv=T AODrv=T NAtomX=     3
   MMem=          74  MDisk=           8 MDiskD=           8
  W3Min=      359970 MinDsk=      723803 NBas6D=         169
 NBas2D=       14809    NTT=       14365    LW2=     3500000
    MDV=   754677643 MDiskM=       22268 NBas2p=       14795
 Fully direct method using O(ONN) memory.
 IMap=   1   2   3   4   5   6   7   8   9  10  11  12  13  14  15
 JobTyp=1 Pass  1:  I=   8 to  15 NPSUse=  4 ParTrn=T ParDer=T DoDerP=T.
 Spin components of T(2) and E(2):
     alpha-alpha T2 =       0.2946062031D-01 E2=     -0.6973623551D-01
     alpha-beta  T2 =       0.1556646147D+00 E2=     -0.3975097924D+00
     beta-beta   T2 =       0.2946062031D-01 E2=     -0.6973623551D-01
 The integrals were generated   1 times.
 ANorm=    0.1102082508D+01
 E2 =    -0.5369822634D+00 EUMP2 =    -0.49046177234372D+03
 Leave Link  906 at Wed May  4 19:06:24 2022, MaxMem=   754974720 cpu:              33.6 elap:               8.4
 (Enter /opt/cluster/programs/g16-c.01/g16/l1002.exe)
 Minotr:  Closed shell wavefunction.
          Computing MP2/KS-MP2 derivatives.
          Using Z-Vector for PSCF gradient.
          Skipping F1 and S1 gradient terms here.
          IDoAtm=111
          Frozen-core window.
          Direct CPHF calculation.
          Differentiating once with respect to electric field.
                with respect to dipole field.
          Differentiating once with respect to nuclear coordinates.
          Using symmetry in CPHF.
          Requested convergence is 1.0D-10 RMS, and 1.0D-09 maximum.
          NewPWx=F KeepS1=T KeepF1=T KeepIn=T MapXYZ=F SortEE=F KeepMc=T.
 Keep R1 ints in memory in symmetry-blocked form, NReq=77616884.
 FoFCou: FMM=F IPFlag=           0 FMFlag=           0 FMFlg1=           0
         NFxFlg=           0 DoJE=F BraDBF=F KetDBF=F FulRan=T
         wScrn=  0.000000 ICntrl=       600 IOpCl=  0 I1Cent=           0 NGrid=           0
         NMat0=    1 NMatS0=  10153 NMatT0=    0 NMatD0=    1 NMtDS0=    0 NMtDT0=    0
 Petite list used in FoFCou.
          MDV=     754974720 using IRadAn=       5.
          Solving linear equations separately, MaxMat=       0.
          There are     1 degrees of freedom in the 1st order CPHF.  IDoFFX=0 NUNeed=     1.
 LinEq1:  Iter=  0 NonCon=     1 RMS=5.09D-03 Max=8.75D-02 NDo=     1
 AX will form     1 AO Fock derivatives at one time.
 LinEq1:  Iter=  1 NonCon=     1 RMS=1.76D-03 Max=1.75D-02 NDo=     1
 LinEq1:  Iter=  2 NonCon=     1 RMS=6.49D-04 Max=8.87D-03 NDo=     1
 LinEq1:  Iter=  3 NonCon=     1 RMS=3.63D-04 Max=5.66D-03 NDo=     1
 LinEq1:  Iter=  4 NonCon=     1 RMS=1.90D-04 Max=4.77D-03 NDo=     1
 LinEq1:  Iter=  5 NonCon=     1 RMS=7.10D-05 Max=8.13D-04 NDo=     1
 LinEq1:  Iter=  6 NonCon=     1 RMS=2.06D-05 Max=2.54D-04 NDo=     1
 LinEq1:  Iter=  7 NonCon=     1 RMS=4.92D-06 Max=5.96D-05 NDo=     1
 LinEq1:  Iter=  8 NonCon=     1 RMS=1.05D-06 Max=9.87D-06 NDo=     1
 LinEq1:  Iter=  9 NonCon=     1 RMS=2.98D-07 Max=4.09D-06 NDo=     1
 LinEq1:  Iter= 10 NonCon=     1 RMS=6.76D-08 Max=8.23D-07 NDo=     1
 LinEq1:  Iter= 11 NonCon=     1 RMS=1.40D-08 Max=1.14D-07 NDo=     1
 LinEq1:  Iter= 12 NonCon=     1 RMS=2.77D-09 Max=2.99D-08 NDo=     1
 LinEq1:  Iter= 13 NonCon=     1 RMS=4.51D-10 Max=5.13D-09 NDo=     1
 LinEq1:  Iter= 14 NonCon=     0 RMS=7.75D-11 Max=8.84D-10 NDo=     1
 Linear equations converged to 1.000D-10 1.000D-09 after    14 iterations.
 End of Minotr F.D. properties file   721 does not exist.
[...]
 IDIUse=1 WtCom= 1.00D+00 WtEn= 0.00D+00
 Coeff-Com:  0.532D-03-0.395D-02-0.401D-02 0.228D-02 0.740D-01-0.756D-01
 Coeff-Com: -0.632D+00 0.164D+01
 Coeff:      0.532D-03-0.395D-02-0.401D-02 0.228D-02 0.740D-01-0.756D-01
 Coeff:     -0.632D+00 0.164D+01
 Gap=     0.308 Goal=   None    Shift=    0.000
 RMSDP=5.44D-09 MaxDP=1.16D-07 DE=-3.30D-12 OVMax= 5.00D-07

 SCF Done:  E(RHF) =  -489.924834459     A.U. after    8 cycles
            NFock=  8  Conv=0.54D-08     -V/T= 2.0005
 KE= 4.896597632543D+02 PE=-1.310561991731D+03 EE= 2.609113242679D+02
 Leave Link  502 at Wed May  4 19:06:49 2022, MaxMem=   754974720 cpu:              24.3 elap:               8.2
 (Enter /opt/cluster/programs/g16-c.01/g16/l801.exe)
 ExpMin= 3.51D-02 ExpMax= 3.74D+05 ExpMxC= 1.18D+03 IAcc=3 IRadAn=         5 AccDes= 0.00D+00
 HarFok:  IExCor=  205 AccDes= 0.00D+00 IRadAn=         5 IDoV=-2 UseB2=F ITyADJ=14
 ICtDFT= 12500011 ScaDFX=  1.000000  1.000000  1.000000  1.000000
 Largest valence mixing into a core orbital is  5.38D-04
 Largest core mixing into a valence orbital is  1.41D-04
 Range of M.O.s used for correlation:     8   142
 NBasis=   142 NAE=    15 NBE=    15 NFC=     7 NFV=     0
 NROrb=    135 NOA=     8 NOB=     8 NVA=   127 NVB=   127

 **** Warning!!: The largest alpha MO coefficient is  0.18441795D+02

 Leave Link  801 at Wed May  4 19:06:49 2022, MaxMem=   754974720 cpu:               0.3 elap:               0.1
 (Enter /opt/cluster/programs/g16-c.01/g16/l906.exe)
 Frozen-core derivative calculation, NFC=   7 NFV=   0.
 FulOut=F Deriv=T AODrv=T NAtomX=     3
   MMem=          74  MDisk=           8 MDiskD=           8
  W3Min=      359970 MinDsk=      723803 NBas6D=         169
 NBas2D=       14809    NTT=       14365    LW2=     3500000
    MDV=   754677643 MDiskM=       22268 NBas2p=       14795
 Fully direct method using O(ONN) memory.
 IMap=   1   2   3   4   5   6   7   8   9  10  11  12  13  14  15
 JobTyp=1 Pass  1:  I=   8 to  15 NPSUse=  4 ParTrn=T ParDer=T DoDerP=T.
 Spin components of T(2) and E(2):
     alpha-alpha T2 =       0.2945373279D-01 E2=     -0.6972764883D-01
     alpha-beta  T2 =       0.1556386081D+00 E2=     -0.3974827261D+00
     beta-beta   T2 =       0.2945373279D-01 E2=     -0.6972764883D-01
 The integrals were generated   1 times.
 ANorm=    0.1102064460D+01
 E2 =    -0.5369380238D+00 EUMP2 =    -0.49046177248238D+03
 Leave Link  906 at Wed May  4 19:06:56 2022, MaxMem=   754974720 cpu:              28.7 elap:               7.2
 (Enter /opt/cluster/programs/g16-c.01/g16/l1002.exe)
 Minotr:  Closed shell wavefunction.
          Computing MP2/KS-MP2 derivatives.
          Using Z-Vector for PSCF gradient.
          Skipping F1 and S1 gradient terms here.
          IDoAtm=111
          Frozen-core window.
          Direct CPHF calculation.
          Differentiating once with respect to electric field.
                with respect to dipole field.
          Differentiating once with respect to nuclear coordinates.
          Using symmetry in CPHF.
          Requested convergence is 1.0D-10 RMS, and 1.0D-09 maximum.
          NewPWx=F KeepS1=T KeepF1=T KeepIn=T MapXYZ=F SortEE=F KeepMc=T.
 Keep R1 ints in memory in symmetry-blocked form, NReq=77616884.
 FoFCou: FMM=F IPFlag=           0 FMFlag=           0 FMFlg1=           0
         NFxFlg=           0 DoJE=F BraDBF=F KetDBF=F FulRan=T
         wScrn=  0.000000 ICntrl=       600 IOpCl=  0 I1Cent=           0 NGrid=           0
         NMat0=    1 NMatS0=  10153 NMatT0=    0 NMatD0=    1 NMtDS0=    0 NMtDT0=    0
 Petite list used in FoFCou.
          MDV=     754974720 using IRadAn=       5.
          Solving linear equations separately, MaxMat=       0.
          There are     1 degrees of freedom in the 1st order CPHF.  IDoFFX=0 NUNeed=     1.
 LinEq1:  Iter=  0 NonCon=     1 RMS=5.09D-03 Max=8.74D-02 NDo=     1
 AX will form     1 AO Fock derivatives at one time.
 LinEq1:  Iter=  1 NonCon=     1 RMS=1.76D-03 Max=1.75D-02 NDo=     1
 LinEq1:  Iter=  2 NonCon=     1 RMS=6.48D-04 Max=8.86D-03 NDo=     1
 LinEq1:  Iter=  3 NonCon=     1 RMS=3.62D-04 Max=5.65D-03 NDo=     1
 LinEq1:  Iter=  4 NonCon=     1 RMS=1.90D-04 Max=4.76D-03 NDo=     1
 LinEq1:  Iter=  5 NonCon=     1 RMS=7.09D-05 Max=8.13D-04 NDo=     1
 LinEq1:  Iter=  6 NonCon=     1 RMS=2.06D-05 Max=2.54D-04 NDo=     1
 LinEq1:  Iter=  7 NonCon=     1 RMS=4.92D-06 Max=5.96D-05 NDo=     1
 LinEq1:  Iter=  8 NonCon=     1 RMS=1.05D-06 Max=9.86D-06 NDo=     1
 LinEq1:  Iter=  9 NonCon=     1 RMS=2.97D-07 Max=4.09D-06 NDo=     1
 LinEq1:  Iter= 10 NonCon=     1 RMS=6.75D-08 Max=8.22D-07 NDo=     1
 LinEq1:  Iter= 11 NonCon=     1 RMS=1.40D-08 Max=1.13D-07 NDo=     1
 LinEq1:  Iter= 12 NonCon=     1 RMS=2.77D-09 Max=2.98D-08 NDo=     1
 LinEq1:  Iter= 13 NonCon=     1 RMS=4.50D-10 Max=5.11D-09 NDo=     1
 LinEq1:  Iter= 14 NonCon=     0 RMS=7.73D-11 Max=8.84D-10 NDo=     1
 Linear equations converged to 1.000D-10 1.000D-09 after    14 iterations.
 End of Minotr F.D. properties file   721 does not exist.
 End of Minotr F.D. properties file   722 does not exist.
 End of Minotr F.D. properties file   788 does not exist.
 Leave Link 1002 at Wed May  4 19:07:00 2022, MaxMem=   754974720 cpu:              12.8 elap:               3.5
 (Enter /opt/cluster/programs/g16-c.01/g16/l701.exe)
 ... and contract with generalized density number  2.
 Compute integral first derivatives.
 Leave Link  701 at Wed May  4 19:07:00 2022, MaxMem=   754974720 cpu:               0.7 elap:               0.2
 (Enter /opt/cluster/programs/g16-c.01/g16/l702.exe)
 L702 exits ... SP integral derivatives will be done elsewhere.
 Leave Link  702 at Wed May  4 19:07:00 2022, MaxMem=   754974720 cpu:               0.1 elap:               0.0
 (Enter /opt/cluster/programs/g16-c.01/g16/l703.exe)
 Integral derivatives from FoFJK, PRISM(SPDF).
 Compute integral first derivatives, UseDBF=F ICtDFT=           0.
 Calling FoFJK, ICntrl=  10002127 FMM=F ISym2X=1 I1Cent= 0 IOpClX= 0 NMat=1 NMatS=1 NMatT=0.
 FoFJK:  IHMeth= 1 ICntrl=10002127 DoSepK=F KAlg= 0 I1Cent=           0 FoldK=F
 IRaf=         0 NMat=       1 IRICut=       1 DoRegI=T DoRafI=F ISym2E= 1 IDoP0=0 IntGTp=1.
 FoFCou: FMM=F IPFlag=           0 FMFlag=      100000 FMFlg1=         800
         NFxFlg=           0 DoJE=F BraDBF=F KetDBF=F FulRan=T
         wScrn=  0.000000 ICntrl=  10002127 IOpCl=  0 I1Cent=           0 NGrid=           0
         NMat0=    1 NMatS0=      1 NMatT0=    0 NMatD0=    1 NMtDS0=    0 NMtDT0=    0
 Petite list used in FoFCou.
 Leave Link  703 at Wed May  4 19:07:03 2022, MaxMem=   754974720 cpu:              14.4 elap:               3.6
 (Enter /opt/cluster/programs/g16-c.01/g16/l716.exe)
 Dipole        =-2.07087190D-01-3.86622095D-01 4.02066519D-31
 ***** Axes restored to original set *****
 -------------------------------------------------------------------
 Center     Atomic                   Forces (Hartrees/Bohr)
 Number     Number              X              Y              Z
 -------------------------------------------------------------------
      1        7          -0.027645731    0.000000000    0.000088606
      2        6           0.044877880   -0.000000000   -0.009630740
      3       16          -0.017232150    0.000000000    0.009542134
 -------------------------------------------------------------------
 Cartesian Forces:  Max     0.044877880 RMS     0.019029418
 Leave Link  716 at Wed May  4 19:07:04 2022, MaxMem=   754974720 cpu:               0.2 elap:               0.1
 (Enter /opt/cluster/programs/g16-c.01/g16/l103.exe)

 GradGradGradGradGradGradGradGradGradGradGradGradGradGradGradGradGradGrad
 Berny optimization.
 Using GEDIIS/GDIIS optimizer.
 FormGI is forming the generalized inverse of G from B-inverse, IUseBI=4.
 Internal  Forces:  Max     0.062533577 RMS     0.036103829
 Search for a local minimum.
 Step number   4 out of a maximum of   20
 All quantities printed in internal units (Hartrees-Bohrs-Radians)
 RMS Force = .74587D-04 SwitMx=.10000D-02 MixMth= 2
 Mixed Optimization -- En-DIIS/RFO-DIIS
 Swapping is turned off.
 Update second derivatives using D2CorX and points    1    2    4
 DE= -1.39D-07 DEPred=-1.11D-07 R= 1.24D+00
 Trust test= 1.24D+00 RLast= 6.41D-04 DXMaxT set to 3.00D-01
 The second derivative matrix:
                          R1        R2        A1
           R1           1.08331
           R2           0.05214   0.30139
           A1           0.05287   0.04996   0.26010
 ITU=  0  1  1  0
     Eigenvalues ---    0.29793   1.086771000.00000
 En-DIIS/RFO-DIIS/Sim-DIIS IScMMF=       -3 using points:     4    3
 RFO step:  Lambda=-3.92094931D-06.
 NNeg= 0 NGDIIS= 2 SimSw=  2.50D-01 Rises=F DC= -1.39D-07 SmlDif=  1.00D-05
 NRisDI= 0 DoIntr=F SqrtH=F CThrHd= 10.0 CDAdj=  3.0
 RMS Error=  0.6941552054D-04 NUsed= 2 OKEnD=F EnDIS=F
 InvSVX:  RCond= 8.78D-08 Info=           0 Equed=N FErr=  1.20D-15 BErr=  5.00D-17
 DIIS inversion failure, remove point   2.
 Use linear search instead of GDIIS.
 RFO step:  Lambda= 0.00000000D+00 EMin= 2.97929951D-01
 Quartic linear search produced a step of  0.17804.
 Iteration  1 RMS(Cart)=  0.00004860 RMS(Int)=  0.00000000
 Iteration  2 RMS(Cart)=  0.00000000 RMS(Int)=  0.00000000
 Iteration  1 RMS(Cart)=  0.00000000 RMS(Int)=  0.00000000
 ITry= 1 IFail=0 DXMaxC= 6.77D-05 DCOld= 1.00D+10 DXMaxT= 3.00D-01 DXLimC= 3.00D+00 Rises=F
 ClnCor:  largest displacement from symmetrization is 2.33D-15 for atom     1.
 Variable       Old X    -DE/DX   Delta X   Delta X   Delta X     New X
                                 (Linear)    (Quad)   (Total)
    R1        2.26197  -0.00011  -0.00007  -0.00004  -0.00010   2.26186
    R2        3.17467   0.00000   0.00009  -0.00010  -0.00000   3.17466
    A1        2.63545   0.06253   0.00000   0.00000   0.00000   2.63545
         Item               Value     Threshold  Converged?
 Maximum Force            0.000105     0.000450     YES
 RMS     Force            0.000075     0.000300     YES
 Maximum Displacement     0.000068     0.001800     YES
 RMS     Displacement     0.000049     0.001200     YES
 Predicted change in Energy=-5.071300D-09
 Optimization completed.
    -- Stationary point found.
                           ----------------------------
                           !   Optimized Parameters   !
                           ! (Angstroms and Degrees)  !
 --------------------------                            --------------------------
 ! Name  Definition              Value          Derivative Info.                !
 --------------------------------------------------------------------------------
 ! R1    R(1,2)                  1.197          -DE/DX =   -0.0001              !
 ! R2    R(2,3)                  1.68           -DE/DX =    0.0                 !
 ! A1    A(1,2,3)              151.0            -DE/DX =    0.0625              !
 --------------------------------------------------------------------------------
 Lowest energy point so far.  Saving SCF results.
 Largest change from initial coordinates is atom    1       0.010 Angstoms.
 GradGradGradGradGradGradGradGradGradGradGradGradGradGradGradGradGradGrad

 Leave Link  103 at Wed May  4 19:07:04 2022, MaxMem=   754974720 cpu:               0.3 elap:               0.1
 (Enter /opt/cluster/programs/g16-c.01/g16/l202.exe)
                          Input orientation:                          
 ---------------------------------------------------------------------
 Center     Atomic      Atomic             Coordinates (Angstroms)
 Number     Number       Type             X           Y           Z
 ---------------------------------------------------------------------
      1          7           0       -0.002286   -0.000000   -1.829728
      2          6           0       -0.003014    0.000000   -0.632747
      3         16           0        0.810553   -0.000000    0.837075
 ---------------------------------------------------------------------
                    Distance matrix (angstroms):
                    1          2          3
     1  N    0.000000
     2  C    1.196981   0.000000
     3  S    2.787928   1.679961   0.000000
 Stoichiometry    CNS(1-)
 Framework group  CS[SG(CNS)]
 Deg. of freedom     3
 Full point group                 CS      NOp   2
 RotChk:  IX=0 Diff= 1.98D-14
 Largest Abelian subgroup         CS      NOp   2
 Largest concise Abelian subgroup C1      NOp   1
                         Standard orientation:                         
 ---------------------------------------------------------------------
 Center     Atomic      Atomic             Coordinates (Angstroms)
 Number     Number       Type             X           Y           Z
 ---------------------------------------------------------------------
      1          7           0        0.781142    1.595534   -0.000000
      2          6           0        0.000000    0.688572    0.000000
      3         16           0       -0.341750   -0.956261    0.000000
 ---------------------------------------------------------------------
 Rotational constants (GHZ):         469.2364513           6.1800801           6.0997434
 Leave Link  202 at Wed May  4 19:07:04 2022, MaxMem=   754974720 cpu:               0.1 elap:               0.0
 (Enter /opt/cluster/programs/g16-c.01/g16/l601.exe)
 Copying SCF densities to generalized density rwf, IOpCl= 0 IROHF=0.

 **********************************************************************

            Population analysis using the SCF Density.

 **********************************************************************

 Orbital symmetries:
       Occupied  (A') (A') (A') (A') (A') (A") (A') (A') (A') (A')
                 (A') (A") (A') (A") (A')
       Virtual   (A') (A') (A') (A") (A') (A") (A') (A") (A') (A')
                 (A') (A') (A") (A') (A') (A") (A') (A') (A") (A')
                 (A") (A') (A') (A") (A') (A') (A") (A') (A') (A")
                 (A') (A') (A") (A') (A") (A') (A") (A') (A') (A")
                 (A') (A') (A") (A') (A') (A") (A') (A") (A') (A")
                 (A') (A') (A") (A') (A') (A") (A') (A") (A') (A')
                 (A') (A") (A') (A") (A') (A") (A') (A") (A') (A')
                 (A') (A") (A') (A") (A') (A") (A') (A') (A') (A")
                 (A") (A') (A") (A') (A') (A") (A') (A") (A') (A')
                 (A') (A") (A') (A') (A") (A') (A") (A') (A") (A')
                 (A') (A") (A') (A") (A') (A") (A') (A') (A') (A")
                 (A') (A') (A") (A') (A') (A") (A") (A') (A') (A")
                 (A') (A") (A') (A') (A') (A') (A')
 The electronic state is 1-A'.
 Alpha  occ. eigenvalues --  -91.72915 -15.36567 -11.10232  -8.73086  -6.41279
 Alpha  occ. eigenvalues --   -6.41030  -6.41023  -0.99927  -0.76240  -0.41534
 Alpha  occ. eigenvalues --   -0.33264  -0.29868  -0.29782  -0.13846  -0.13386
 Alpha virt. eigenvalues --    0.17440   0.19172   0.22578   0.23594   0.23949
 Alpha virt. eigenvalues --    0.24097   0.24754   0.29427   0.30178   0.31083
 Alpha virt. eigenvalues --    0.33981   0.37804   0.39765   0.42041   0.44556
 Alpha virt. eigenvalues --    0.45390   0.46082   0.53954   0.54107   0.54559
 Alpha virt. eigenvalues --    0.55349   0.58628   0.61912   0.63992   0.64742
 Alpha virt. eigenvalues --    0.70327   0.71222   0.75087   0.77334   0.77383
 Alpha virt. eigenvalues --    0.77946   0.80892   0.81872   0.88141   0.90362
 Alpha virt. eigenvalues --    0.92996   0.95428   0.96035   1.01235   1.01365
 Alpha virt. eigenvalues --    1.02451   1.06881   1.06940   1.14099   1.15284
 Alpha virt. eigenvalues --    1.15329   1.25143   1.26993   1.28386   1.28746
 Alpha virt. eigenvalues --    1.29962   1.33316   1.36017   1.38385   1.42909
 Alpha virt. eigenvalues --    1.47709   1.48781   1.55173   1.56508   1.59755
 Alpha virt. eigenvalues --    1.72242   1.72987   1.74794   1.80678   1.85205
 Alpha virt. eigenvalues --    1.90454   1.91755   2.03180   2.04230   2.07626
 Alpha virt. eigenvalues --    2.13961   2.15779   2.18000   2.28101   2.29574
 Alpha virt. eigenvalues --    2.30282   2.31626   2.39566   2.44070   2.45753
 Alpha virt. eigenvalues --    2.52011   2.55690   2.59641   2.60007   2.60518
 Alpha virt. eigenvalues --    2.60717   2.65923   2.69861   2.74374   2.81864
 Alpha virt. eigenvalues --    2.95861   2.99719   3.23089   3.26862   3.29054
 Alpha virt. eigenvalues --    3.61717   3.67607   3.68355   3.71822   3.72489
 Alpha virt. eigenvalues --    3.78917   3.88350   3.93974   3.97219   3.99800
 Alpha virt. eigenvalues --    4.11268   4.12846   4.24686   4.65698   4.70489
 Alpha virt. eigenvalues --    4.83209   4.91095   5.20087   5.20186   5.45778
 Alpha virt. eigenvalues --    5.47841   5.65523   5.66514   5.81681   5.85036
 Alpha virt. eigenvalues --    6.18409   6.25400   6.32241   6.35327   6.73276
 Alpha virt. eigenvalues --   11.93465  16.05311
          Condensed to atoms (all electrons):
               1          2          3
     1  N    6.869853   0.674557  -0.111672
     2  C    0.674557   5.072669   0.336351
     3  S   -0.111672   0.336351  16.259006
 Mulliken charges:
               1
     1  N   -0.432738
     2  C   -0.083577
     3  S   -0.483685
 Sum of Mulliken charges =  -1.00000
 Mulliken charges with hydrogens summed into heavy atoms:
               1
     1  N   -0.432738
     2  C   -0.083577
     3  S   -0.483685
 Electronic spatial extent (au):  <R**2>=            221.9983
 Charge=             -1.0000 electrons
 Dipole moment (field-independent basis, Debye):
    X=             -0.6569    Y=             -0.9882    Z=             -0.0000  Tot=              1.1866
 Quadrupole moment (field-independent basis, Debye-Ang):
   XX=            -31.6353   YY=            -38.5181   ZZ=            -29.4172
   XY=             -4.9283   XZ=             -0.0000   YZ=             -0.0000
 Traceless Quadrupole moment (field-independent basis, Debye-Ang):
   XX=              1.5549   YY=             -5.3279   ZZ=              3.7730
   XY=             -4.9283   XZ=             -0.0000   YZ=             -0.0000
 Octapole moment (field-independent basis, Debye-Ang**2):
  XXX=              2.3607  YYY=            -15.8780  ZZZ=             -0.0000  XYY=             -6.3255
  XXY=             -0.5081  XXZ=             -0.0000  XZZ=              1.0208  YZZ=              1.9304
  YYZ=             -0.0000  XYZ=             -0.0000
 Hexadecapole moment (field-independent basis, Debye-Ang**3):
 XXXX=            -86.1632 YYYY=           -272.3733 ZZZZ=            -46.4589 XXXY=            -46.8606
 XXXZ=              0.0000 YYYX=            -51.0963 YYYZ=             -0.0000 ZZZX=              0.0000
 ZZZY=              0.0000 XXYY=            -63.3898 XXZZ=            -21.9586 YYZZ=            -52.5554
 XXYZ=             -0.0000 YYXZ=             -0.0000 ZZXY=            -14.8953
 N-N= 7.006606975037D+01 E-N=-1.310561991703D+03  KE= 4.896597632543D+02
 Symmetry A'   KE= 4.486534525609D+02
 Symmetry A"   KE= 4.100631069340D+01
 No NMR shielding tensors so no spin-rotation constants.
 Leave Link  601 at Wed May  4 19:07:05 2022, MaxMem=   754974720 cpu:               2.3 elap:               0.8
 (Enter /opt/cluster/programs/g16-c.01/g16/l9999.exe)
 Unable to Open any file for archive entry.
 1\1\GINC-NODE41\FOpt\RMP2-FC\Aug-CC-pVTZ\C1N1S1(1-)\TOEPFER\04-May-202
 2\0\\#P MP2/aug-cc-pVTZ scf(maxcycle=200) opt geom(AddGIC)\\Gaussian i
 nput\\-1,1\N,-0.0022857608,0.,-1.8297275164\C,-0.0030140108,0.,-0.6327
 470951\S,0.8105530369,0.,0.8370749573\\Version=ES64L-G16RevC.01\State=
 1-A'\HF=-489.9248345\MP2=-490.4617725\RMSD=5.439e-09\RMSF=1.903e-02\Di
 pole=0.095135,0.,0.4281484\PG=CS [SG(C1N1S1)]\\@
 The archive entry for this job was punched.


 ONLY A FOOL KNOWS EVERYTHING.

               -- THE CHEMIST ANALYST, SEPTEMBER 1946
 Job cpu time:       0 days  0 hours  5 minutes 59.6 seconds.
 Elapsed time:       0 days  0 hours  1 minutes 42.2 seconds.
 File lengths (MBytes):  RWF=     15 Int=      0 D2E=      0 Chk=      3 Scr=      1
 Normal termination of Gaussian 16 at Wed May  4 19:07:05 2022.
