 Entering Gaussian System, Link 0=/opt/cluster/programs/g16-c.01/g16/g16
 Input=/scratch/toepfer/jobs/tmp.5739912/gaussian_4_scn.com
 Output=/scratch/toepfer/jobs/tmp.5739912/gaussian_4_scn.out
 Initial command:
 /opt/cluster/programs/g16-c.01/g16/l1.exe "/scratch/toepfer/jobs/tmp.5739912/Gau-146263.inp" -scrdir="/scratch/toepfer/jobs/tmp.5739912/"
 Entering Link 1 = /opt/cluster/programs/g16-c.01/g16/l1.exe PID=    146271.
  
 Copyright (c) 1988-2019, Gaussian, Inc.  All Rights Reserved.
  
 This is part of the Gaussian(R) 16 program.  It is based on
 the Gaussian(R) 09 system (copyright 2009, Gaussian, Inc.),
 the Gaussian(R) 03 system (copyright 2003, Gaussian, Inc.),
 the Gaussian(R) 98 system (copyright 1998, Gaussian, Inc.),
 the Gaussian(R) 94 system (copyright 1995, Gaussian, Inc.),
 the Gaussian 92(TM) system (copyright 1992, Gaussian, Inc.),
 the Gaussian 90(TM) system (copyright 1990, Gaussian, Inc.),
 the Gaussian 88(TM) system (copyright 1988, Gaussian, Inc.),
 the Gaussian 86(TM) system (copyright 1986, Carnegie Mellon
 University), and the Gaussian 82(TM) system (copyright 1983,
 Carnegie Mellon University). Gaussian is a federally registered
 trademark of Gaussian, Inc.
  
 This software contains proprietary and confidential information,
 including trade secrets, belonging to Gaussian, Inc.
  
 This software is provided under written license and may be
 used, copied, transmitted, or stored only in accord with that
 written license.
  
 The following legend is applicable only to US Government
 contracts under FAR:
  
                    RESTRICTED RIGHTS LEGEND
  
 Use, reproduction and disclosure by the US Government is
 subject to restrictions as set forth in subparagraphs (a)
 and (c) of the Commercial Computer Software - Restricted
 Rights clause in FAR 52.227-19.
  
 Gaussian, Inc.
 340 Quinnipiac St., Bldg. 40, Wallingford CT 06492
  
  
 ---------------------------------------------------------------
 Warning -- This program may not be used in any manner that
 competes with the business of Gaussian, Inc. or will provide
 assistance to any competitor of Gaussian, Inc.  The licensee
 of this program is prohibited from giving any competitor of
 Gaussian, Inc. access to this program.  By using this program,
 the user acknowledges that Gaussian, Inc. is engaged in the
 business of creating and licensing software in the field of
 computational chemistry and represents and warrants to the
 licensee that it is not a competitor of Gaussian, Inc. and that
 it will not use this program in any manner prohibited above.
 ---------------------------------------------------------------
  

 Cite this work as:
 Gaussian 16, Revision C.01,
 M. J. Frisch, G. W. Trucks, H. B. Schlegel, G. E. Scuseria, 
 M. A. Robb, J. R. Cheeseman, G. Scalmani, V. Barone, 
 G. A. Petersson, H. Nakatsuji, X. Li, M. Caricato, A. V. Marenich, 
 J. Bloino, B. G. Janesko, R. Gomperts, B. Mennucci, H. P. Hratchian, 
 J. V. Ortiz, A. F. Izmaylov, J. L. Sonnenberg, D. Williams-Young, 
 F. Ding, F. Lipparini, F. Egidi, J. Goings, B. Peng, A. Petrone, 
 T. Henderson, D. Ranasinghe, V. G. Zakrzewski, J. Gao, N. Rega, 
 G. Zheng, W. Liang, M. Hada, M. Ehara, K. Toyota, R. Fukuda, 
 J. Hasegawa, M. Ishida, T. Nakajima, Y. Honda, O. Kitao, H. Nakai, 
 T. Vreven, K. Throssell, J. A. Montgomery, Jr., J. E. Peralta, 
 F. Ogliaro, M. J. Bearpark, J. J. Heyd, E. N. Brothers, K. N. Kudin, 
 V. N. Staroverov, T. A. Keith, R. Kobayashi, J. Normand, 
 K. Raghavachari, A. P. Rendell, J. C. Burant, S. S. Iyengar, 
 J. Tomasi, M. Cossi, J. M. Millam, M. Klene, C. Adamo, R. Cammi, 
 J. W. Ochterski, R. L. Martin, K. Morokuma, O. Farkas, 
 J. B. Foresman, and D. J. Fox, Gaussian, Inc., Wallingford CT, 2019.
 
 ******************************************
 Gaussian 16:  ES64L-G16RevC.01  3-Jul-2019
                 4-May-2022 
 ******************************************
 %nproc=4
 Will use up to    4 processors via shared memory.
 %mem=5760MB
 %chk=gaussian_4_scn.chk
 -----------------------------------------------------
 #P MP2/aug-cc-pVTZ scf(maxcycle=200) opt geom(AddGIC)
 -----------------------------------------------------
 1/18=20,19=15,38=1,145=903/1,3;
 2/9=110,12=2,17=6,18=5,40=1/2;
 3/5=16,6=1,7=10,11=9,25=1,30=1,71=1/1,2,3;
 4//1;
 5/5=2,7=200,38=5/2;
 8/6=4,10=1/1;
 9/15=2,16=-3/6;
 10/5=1/2;
 6/7=2,8=2,9=2,10=2/1;
 7/12=2/1,2,3,16;
 1/18=20,19=15,145=903/3(2);
 2/9=110/2;
 99//99;
 2/9=110/2;
 3/5=16,6=1,7=10,11=9,25=1,30=1,71=1/1,2,3;
 4/5=5,16=3,69=1/1;
 5/5=2,7=200,38=5/2;
 8/6=4,10=1/1;
 9/15=2,16=-3/6;
 10/5=1/2;
 7/12=2/1,2,3,16;
 1/18=20,19=15,145=903/3(-8);
 2/9=110/2;
 6/7=2,8=2,9=2,10=2/1;
 99/9=10/99;
 Leave Link    1 at Wed May  4 19:05:21 2022, MaxMem=   754974720 cpu:               0.1 elap:               0.0
 (Enter /opt/cluster/programs/g16-c.01/g16/l101.exe)
 --------------
 Gaussian input
 --------------
 Symbolic Z-matrix:
 Charge = -1 Multiplicity = 1
 N                     0.        0.       -1.82094 
 C                     0.        0.       -0.62859 
 S                     0.48562   0.        0.95981 
 
 Initializing the GIC definitions file.
 Number of initial coordinates =     3
 Number of input entries/lines =     1
 Number of additional coordinates =     0
 Number of removed coordinates =     0
 Number of frozen coordinates =     1
 Number of final active and frozen coordinates =     3
 ITRead=  0  0  0
 MicOpt= -1 -1 -1
 NAtoms=      3 NQM=        3 NQMF=       0 NMMI=      0 NMMIF=      0
                NMic=       0 NMicF=      0.
                    Isotopes and Nuclear Properties:
 (Nuclear quadrupole moments (NQMom) in fm**2, nuclear magnetic moments (NMagM)
  in nuclear magnetons)

  Atom         1           2           3
 IAtWgt=          14          12          32
 AtmWgt=  14.0030740  12.0000000  31.9720718
 NucSpn=           2           0           0
 AtZEff=  -0.0000000  -0.0000000  -0.0000000
 NQMom=    2.0440000   0.0000000   0.0000000
 NMagM=    0.4037610   0.0000000   0.0000000
 AtZNuc=   7.0000000   6.0000000  16.0000000
 Leave Link  101 at Wed May  4 19:05:22 2022, MaxMem=   754974720 cpu:               2.4 elap:               0.8
 (Enter /opt/cluster/programs/g16-c.01/g16/l103.exe)

 GradGradGradGradGradGradGradGradGradGradGradGradGradGradGradGradGradGrad
 Berny optimization.
 Initialization pass.
                           ----------------------------
                           !    Initial Parameters    !
                           ! (Angstroms and Degrees)  !
 --------------------------                            --------------------------
 ! Name  Definition              Value          Derivative Info.                !
 --------------------------------------------------------------------------------
 ! R1    R(1,2)                  1.1924         estimate D2E/DX2                !
 ! R2    R(2,3)                  1.661          estimate D2E/DX2                !
 ! A1    A(1,2,3)              163.0            Frozen                          !
 --------------------------------------------------------------------------------
 Trust Radius=3.00D-01 FncErr=1.00D-07 GrdErr=1.00D-07 EigMax=2.50D+02 EigMin=1.00D-04
 Number of steps in this run=     20 maximum allowed number of steps=    100.
 GradGradGradGradGradGradGradGradGradGradGradGradGradGradGradGradGradGrad

 Leave Link  103 at Wed May  4 19:05:22 2022, MaxMem=   754974720 cpu:               0.1 elap:               0.1
 (Enter /opt/cluster/programs/g16-c.01/g16/l202.exe)
                          Input orientation:                          
 ---------------------------------------------------------------------
 Center     Atomic      Atomic             Coordinates (Angstroms)
 Number     Number       Type             X           Y           Z
 ---------------------------------------------------------------------
      1          7           0        0.000000    0.000000   -1.820943
      2          6           0        0.000000    0.000000   -0.628586
      3         16           0        0.485620    0.000000    0.959806
 ---------------------------------------------------------------------
                    Distance matrix (angstroms):
                    1          2          3
     1  N    0.000000
     2  C    1.192357   0.000000
     3  S    2.822834   1.660968   0.000000
 Stoichiometry    CNS(1-)
 Framework group  CS[SG(CNS)]
 Deg. of freedom     3
 Full point group                 CS      NOp   2
 Largest Abelian subgroup         CS      NOp   2
 Largest concise Abelian subgroup C1      NOp   1
                         Standard orientation:                         
 ---------------------------------------------------------------------
 Center     Atomic      Atomic             Coordinates (Angstroms)
 Number     Number       Type             X           Y           Z
 ---------------------------------------------------------------------
      1          7           0        0.494025    1.731858    0.000000
      2          6           0        0.000000    0.646660    0.000000
      3         16           0       -0.216136   -1.000185    0.000000
 ---------------------------------------------------------------------
 Rotational constants (GHZ):        1358.8697066           6.0494682           6.0226563
 Leave Link  202 at Wed May  4 19:05:22 2022, MaxMem=   754974720 cpu:               0.0 elap:               0.0
 (Enter /opt/cluster/programs/g16-c.01/g16/l301.exe)
 Standard basis: Aug-CC-pVTZ (5D, 7F)
 Ernie: Thresh=  0.10000D-02 Tol=  0.10000D-05 Strict=F.
 Ernie:  19 primitive shells out of 124 were deleted.
 There are   114 symmetry adapted cartesian basis functions of A'  symmetry.
 There are    55 symmetry adapted cartesian basis functions of A"  symmetry.
 There are    93 symmetry adapted basis functions of A'  symmetry.
 There are    49 symmetry adapted basis functions of A"  symmetry.
   142 basis functions,   258 primitive gaussians,   169 cartesian basis functions
    15 alpha electrons       15 beta electrons
       nuclear repulsion energy        70.2209774064 Hartrees.
 IExCor=    0 DFT=F Ex=HF Corr=None ExCW=0 ScaHFX=  1.000000
 ScaDFX=  1.000000  1.000000  1.000000  1.000000 ScalE2=  1.000000  1.000000
 IRadAn=      5 IRanWt=     -1 IRanGd=            0 ICorTp=0 IEmpDi=  4
 NAtoms=    3 NActive=    3 NUniq=    3 SFac= 1.00D+00 NAtFMM=   60 NAOKFM=F Big=F
 Integral buffers will be    131072 words long.
 Raffenetti 1 integral format.
 Two-electron integral symmetry is turned on.
 Leave Link  301 at Wed May  4 19:05:22 2022, MaxMem=   754974720 cpu:               0.2 elap:               0.1
 (Enter /opt/cluster/programs/g16-c.01/g16/l302.exe)
 NPDir=0 NMtPBC=     1 NCelOv=     1 NCel=       1 NClECP=     1 NCelD=      1
         NCelK=      1 NCelE2=     1 NClLst=     1 CellRange=     0.0.
 One-electron integrals computed using PRISM.
 One-electron integral symmetry used in STVInt
 NBasis=   142 RedAO= T EigKep=  1.03D-04  NBF=    93    49
 NBsUse=   142 1.00D-06 EigRej= -1.00D+00 NBFU=    93    49
 Leave Link  302 at Wed May  4 19:05:22 2022, MaxMem=   754974720 cpu:               1.1 elap:               0.4
 (Enter /opt/cluster/programs/g16-c.01/g16/l303.exe)
 DipDrv:  MaxL=1.
 Leave Link  303 at Wed May  4 19:05:22 2022, MaxMem=   754974720 cpu:               0.1 elap:               0.0
 (Enter /opt/cluster/programs/g16-c.01/g16/l401.exe)
 ExpMin= 3.51D-02 ExpMax= 3.74D+05 ExpMxC= 1.18D+03 IAcc=3 IRadAn=         5 AccDes= 0.00D+00
 Harris functional with IExCor=  205 and IRadAn=       5 diagonalized for initial guess.
 HarFok:  IExCor=  205 AccDes= 0.00D+00 IRadAn=         5 IDoV= 1 UseB2=F ITyADJ=14
 ICtDFT=  3500011 ScaDFX=  1.000000  1.000000  1.000000  1.000000
 FoFCou: FMM=F IPFlag=           0 FMFlag=      100000 FMFlg1=           0
         NFxFlg=           0 DoJE=T BraDBF=F KetDBF=T FulRan=T
         wScrn=  0.000000 ICntrl=       500 IOpCl=  0 I1Cent=   200000004 NGrid=           0
         NMat0=    1 NMatS0=      1 NMatT0=    0 NMatD0=    1 NMtDS0=    0 NMtDT0=    0
 Petite list used in FoFCou.
 Harris En= -489.761990918096    
 JPrj=0 DoOrth=F DoCkMO=F.
 Initial guess orbital symmetries:
       Occupied  (A') (A') (A') (A') (A') (A") (A') (A') (A') (A')
                 (A') (A") (A') (A") (A')
       Virtual   (A') (A") (A') (A') (A') (A") (A') (A') (A") (A')
                 (A') (A") (A') (A') (A") (A') (A') (A') (A") (A')
                 (A") (A') (A') (A") (A') (A') (A") (A') (A') (A")
                 (A') (A') (A") (A') (A") (A") (A') (A') (A') (A")
                 (A') (A') (A") (A') (A") (A') (A') (A") (A') (A')
                 (A") (A') (A") (A') (A') (A") (A') (A') (A") (A')
                 (A") (A') (A') (A") (A') (A") (A') (A") (A') (A')
                 (A') (A") (A') (A") (A') (A') (A") (A') (A") (A')
                 (A") (A') (A') (A") (A') (A") (A') (A") (A') (A')
                 (A') (A") (A') (A") (A') (A') (A') (A") (A") (A')
                 (A') (A") (A') (A') (A") (A') (A") (A') (A') (A")
                 (A') (A') (A") (A') (A') (A") (A") (A') (A') (A")
                 (A') (A') (A") (A') (A') (A') (A')
 The electronic state of the initial guess is 1-A'.
 Leave Link  401 at Wed May  4 19:05:23 2022, MaxMem=   754974720 cpu:               1.2 elap:               0.3
 (Enter /opt/cluster/programs/g16-c.01/g16/l502.exe)
 Keep R1 ints in memory in symmetry-blocked form, NReq=77616006.
 FoFCou: FMM=F IPFlag=           0 FMFlag=           0 FMFlg1=           0
         NFxFlg=           0 DoJE=F BraDBF=F KetDBF=F FulRan=T
         wScrn=  0.000000 ICntrl=       600 IOpCl=  0 I1Cent=           0 NGrid=           0
         NMat0=    1 NMatS0=  10153 NMatT0=    0 NMatD0=    1 NMtDS0=    0 NMtDT0=    0
 Petite list used in FoFCou.
 Closed shell SCF:
 Using DIIS extrapolation, IDIIS=  1040.
 NGot=   754974720 LenX=   728846748 LenY=   728817746
 Requested convergence on RMS density matrix=1.00D-08 within 200 cycles.
 Requested convergence on MAX density matrix=1.00D-06.
 Requested convergence on             energy=1.00D-06.
 No special actions if energy rises.

 Cycle   1  Pass 1  IDiag  1:
 E= -489.748585754474    
 DIIS: error= 4.47D-02 at cycle   1 NSaved=   1.
 NSaved= 1 IEnMin= 1 EnMin= -489.748585754474     IErMin= 1 ErrMin= 4.47D-02
 ErrMax= 4.47D-02  0.00D+00 EMaxC= 1.00D-01 BMatC= 3.50D-01 BMatP= 3.50D-01
 IDIUse=3 WtCom= 5.53D-01 WtEn= 4.47D-01
 Coeff-Com:  0.100D+01
 Coeff-En:   0.100D+01
 Coeff:      0.100D+01
 Gap=     0.561 Goal=   None    Shift=    0.000
 GapD=    0.561 DampG=2.000 DampE=0.500 DampFc=1.0000 IDamp=-1.
 RMSDP=3.38D-03 MaxDP=6.88D-02              OVMax= 2.16D-01

 Cycle   2  Pass 1  IDiag  1:
 E= -489.863732543806     Delta-E=       -0.115146789332 Rises=F Damp=F
 DIIS: error= 2.81D-02 at cycle   2 NSaved=   2.
 NSaved= 2 IEnMin= 2 EnMin= -489.863732543806     IErMin= 2 ErrMin= 2.81D-02
 ErrMax= 2.81D-02  0.00D+00 EMaxC= 1.00D-01 BMatC= 7.61D-02 BMatP= 3.50D-01
 IDIUse=3 WtCom= 7.19D-01 WtEn= 2.81D-01
 Coeff-Com:  0.259D+00 0.741D+00
 Coeff-En:   0.120D+00 0.880D+00
 Coeff:      0.220D+00 0.780D+00
 Gap=     0.381 Goal=   None    Shift=    0.000
 RMSDP=1.48D-03 MaxDP=4.23D-02 DE=-1.15D-01 OVMax= 9.37D-02

 Cycle   3  Pass 1  IDiag  1:
 E= -489.921769475702     Delta-E=       -0.058036931896 Rises=F Damp=F
 DIIS: error= 1.54D-02 at cycle   3 NSaved=   3.
 NSaved= 3 IEnMin= 3 EnMin= -489.921769475702     IErMin= 3 ErrMin= 1.54D-02
 ErrMax= 1.54D-02  0.00D+00 EMaxC= 1.00D-01 BMatC= 1.65D-02 BMatP= 7.61D-02
 IDIUse=3 WtCom= 8.46D-01 WtEn= 1.54D-01
 Coeff-Com: -0.164D-01 0.299D+00 0.717D+00
 Coeff-En:   0.000D+00 0.486D-01 0.951D+00
 Coeff:     -0.139D-01 0.260D+00 0.753D+00
 Gap=     0.319 Goal=   None    Shift=    0.000
 RMSDP=6.01D-04 MaxDP=1.42D-02 DE=-5.80D-02 OVMax= 5.10D-02

 Cycle   4  Pass 1  IDiag  1:
 E= -489.936128227553     Delta-E=       -0.014358751851 Rises=F Damp=F
 DIIS: error= 4.77D-03 at cycle   4 NSaved=   4.
 NSaved= 4 IEnMin= 4 EnMin= -489.936128227553     IErMin= 4 ErrMin= 4.77D-03
 ErrMax= 4.77D-03  0.00D+00 EMaxC= 1.00D-01 BMatC= 1.20D-03 BMatP= 1.65D-02
 IDIUse=3 WtCom= 9.52D-01 WtEn= 4.77D-02
 Coeff-Com: -0.142D-01 0.547D-01 0.285D+00 0.675D+00
 Coeff-En:   0.000D+00 0.000D+00 0.000D+00 0.100D+01
 Coeff:     -0.135D-01 0.521D-01 0.271D+00 0.690D+00
 Gap=     0.310 Goal=   None    Shift=    0.000
 RMSDP=1.46D-04 MaxDP=3.07D-03 DE=-1.44D-02 OVMax= 1.30D-02

 Cycle   5  Pass 1  IDiag  1:
 E= -489.937299790971     Delta-E=       -0.001171563418 Rises=F Damp=F
 DIIS: error= 9.83D-04 at cycle   5 NSaved=   5.
 NSaved= 5 IEnMin= 5 EnMin= -489.937299790971     IErMin= 5 ErrMin= 9.83D-04
 ErrMax= 9.83D-04  0.00D+00 EMaxC= 1.00D-01 BMatC= 6.47D-05 BMatP= 1.20D-03
 IDIUse=3 WtCom= 9.90D-01 WtEn= 9.83D-03
 Coeff-Com:  0.228D-02-0.394D-01-0.909D-01 0.519D-01 0.108D+01
 Coeff-En:   0.000D+00 0.000D+00 0.000D+00 0.000D+00 0.100D+01
 Coeff:      0.226D-02-0.391D-01-0.900D-01 0.514D-01 0.108D+01
 Gap=     0.310 Goal=   None    Shift=    0.000
 RMSDP=8.08D-05 MaxDP=1.77D-03 DE=-1.17D-03 OVMax= 5.23D-03

 Cycle   6  Pass 1  IDiag  1:
 E= -489.937446873098     Delta-E=       -0.000147082127 Rises=F Damp=F
 DIIS: error= 2.79D-04 at cycle   6 NSaved=   6.
 NSaved= 6 IEnMin= 6 EnMin= -489.937446873098     IErMin= 6 ErrMin= 2.79D-04
 ErrMax= 2.79D-04  0.00D+00 EMaxC= 1.00D-01 BMatC= 5.51D-06 BMatP= 6.47D-05
 IDIUse=3 WtCom= 9.97D-01 WtEn= 2.79D-03
 Coeff-Com:  0.102D-02-0.100D-01-0.312D-01-0.580D-01 0.911D-01 0.101D+01
 Coeff-En:   0.000D+00 0.000D+00 0.000D+00 0.000D+00 0.000D+00 0.100D+01
 Coeff:      0.102D-02-0.998D-02-0.311D-01-0.578D-01 0.908D-01 0.101D+01
 Gap=     0.311 Goal=   None    Shift=    0.000
 RMSDP=2.82D-05 MaxDP=5.25D-04 DE=-1.47D-04 OVMax= 2.22D-03

 Cycle   7  Pass 1  IDiag  1:
 E= -489.937463889214     Delta-E=       -0.000017016117 Rises=F Damp=F
 DIIS: error= 1.42D-04 at cycle   7 NSaved=   7.
 NSaved= 7 IEnMin= 7 EnMin= -489.937463889214     IErMin= 7 ErrMin= 1.42D-04
 ErrMax= 1.42D-04  0.00D+00 EMaxC= 1.00D-01 BMatC= 7.28D-07 BMatP= 5.51D-06
 IDIUse=3 WtCom= 9.99D-01 WtEn= 1.42D-03
 Coeff-Com: -0.138D-03 0.445D-02 0.118D-01-0.107D-01-0.120D+00-0.116D+00
 Coeff-Com:  0.123D+01
 Coeff-En:   0.000D+00 0.000D+00 0.000D+00 0.000D+00 0.000D+00 0.000D+00
 Coeff-En:   0.100D+01
 Coeff:     -0.138D-03 0.445D-02 0.118D-01-0.107D-01-0.120D+00-0.116D+00
 Coeff:      0.123D+01
 Gap=     0.311 Goal=   None    Shift=    0.000
 RMSDP=1.35D-05 MaxDP=2.76D-04 DE=-1.70D-05 OVMax= 1.06D-03

 Cycle   8  Pass 1  IDiag  1:
 E= -489.937466560394     Delta-E=       -0.000002671179 Rises=F Damp=F
 DIIS: error= 2.93D-05 at cycle   8 NSaved=   8.
 NSaved= 8 IEnMin= 8 EnMin= -489.937466560394     IErMin= 8 ErrMin= 2.93D-05
 ErrMax= 2.93D-05  0.00D+00 EMaxC= 1.00D-01 BMatC= 5.62D-08 BMatP= 7.28D-07
 IDIUse=1 WtCom= 1.00D+00 WtEn= 0.00D+00
 Coeff-Com: -0.831D-04-0.276D-03-0.193D-03 0.594D-02 0.287D-01-0.302D-01
 Coeff-Com: -0.382D+00 0.138D+01
 Coeff:     -0.831D-04-0.276D-03-0.193D-03 0.594D-02 0.287D-01-0.302D-01
 Coeff:     -0.382D+00 0.138D+01
 Gap=     0.311 Goal=   None    Shift=    0.000
 RMSDP=4.90D-06 MaxDP=1.67D-04 DE=-2.67D-06 OVMax= 3.61D-04

 Cycle   9  Pass 1  IDiag  1:
 E= -489.937466820290     Delta-E=       -0.000000259897 Rises=F Damp=F
 DIIS: error= 1.73D-05 at cycle   9 NSaved=   9.
 NSaved= 9 IEnMin= 9 EnMin= -489.937466820290     IErMin= 9 ErrMin= 1.73D-05
 ErrMax= 1.73D-05  0.00D+00 EMaxC= 1.00D-01 BMatC= 7.78D-09 BMatP= 5.62D-08
 IDIUse=1 WtCom= 1.00D+00 WtEn= 0.00D+00
 Coeff-Com:  0.321D-04-0.240D-03-0.710D-03-0.135D-02 0.457D-03 0.166D-01
 Coeff-Com:  0.265D-01-0.419D+00 0.138D+01
 Coeff:      0.321D-04-0.240D-03-0.710D-03-0.135D-02 0.457D-03 0.166D-01
 Coeff:      0.265D-01-0.419D+00 0.138D+01
 Gap=     0.311 Goal=   None    Shift=    0.000
 RMSDP=1.89D-06 MaxDP=6.38D-05 DE=-2.60D-07 OVMax= 1.46D-04

 Cycle  10  Pass 1  IDiag  1:
 E= -489.937466869900     Delta-E=       -0.000000049609 Rises=F Damp=F
 DIIS: error= 9.32D-06 at cycle  10 NSaved=  10.
 NSaved=10 IEnMin=10 EnMin= -489.937466869900     IErMin=10 ErrMin= 9.32D-06
 ErrMax= 9.32D-06  0.00D+00 EMaxC= 1.00D-01 BMatC= 2.12D-09 BMatP= 7.78D-09
 IDIUse=1 WtCom= 1.00D+00 WtEn= 0.00D+00
 Coeff-Com:  0.118D-04 0.149D-03 0.331D-03-0.916D-03-0.797D-02 0.154D-03
 Coeff-Com:  0.898D-01-0.182D+00-0.586D+00 0.169D+01
 Coeff:      0.118D-04 0.149D-03 0.331D-03-0.916D-03-0.797D-02 0.154D-03
 Coeff:      0.898D-01-0.182D+00-0.586D+00 0.169D+01
 Gap=     0.311 Goal=   None    Shift=    0.000
 RMSDP=1.26D-06 MaxDP=3.42D-05 DE=-4.96D-08 OVMax= 1.01D-04

 Cycle  11  Pass 1  IDiag  1:
 E= -489.937466887357     Delta-E=       -0.000000017457 Rises=F Damp=F
 DIIS: error= 2.65D-06 at cycle  11 NSaved=  11.
 NSaved=11 IEnMin=11 EnMin= -489.937466887357     IErMin=11 ErrMin= 2.65D-06
 ErrMax= 2.65D-06  0.00D+00 EMaxC= 1.00D-01 BMatC= 2.67D-10 BMatP= 2.12D-09
 IDIUse=1 WtCom= 1.00D+00 WtEn= 0.00D+00
 Coeff-Com: -0.112D-04 0.138D-04 0.434D-04 0.703D-03 0.230D-02-0.324D-02
 Coeff-Com: -0.344D-01 0.150D+00-0.128D+00-0.433D+00 0.144D+01
 Coeff:     -0.112D-04 0.138D-04 0.434D-04 0.703D-03 0.230D-02-0.324D-02
 Coeff:     -0.344D-01 0.150D+00-0.128D+00-0.433D+00 0.144D+01
 Gap=     0.311 Goal=   None    Shift=    0.000
 RMSDP=3.56D-07 MaxDP=8.61D-06 DE=-1.75D-08 OVMax= 3.34D-05

 Cycle  12  Pass 1  IDiag  1:
 E= -489.937466889108     Delta-E=       -0.000000001751 Rises=F Damp=F
 DIIS: error= 4.95D-07 at cycle  12 NSaved=  12.
 NSaved=12 IEnMin=12 EnMin= -489.937466889108     IErMin=12 ErrMin= 4.95D-07
 ErrMax= 4.95D-07  0.00D+00 EMaxC= 1.00D-01 BMatC= 1.66D-11 BMatP= 2.67D-10
 IDIUse=1 WtCom= 1.00D+00 WtEn= 0.00D+00
 Coeff-Com: -0.419D-07-0.146D-04-0.442D-04 0.344D-04 0.650D-03-0.273D-04
 Coeff-Com: -0.566D-02 0.586D-02 0.597D-01-0.108D+00-0.154D+00 0.120D+01
 Coeff:     -0.419D-07-0.146D-04-0.442D-04 0.344D-04 0.650D-03-0.273D-04
 Coeff:     -0.566D-02 0.586D-02 0.597D-01-0.108D+00-0.154D+00 0.120D+01
 Gap=     0.311 Goal=   None    Shift=    0.000
 RMSDP=1.00D-07 MaxDP=3.12D-06 DE=-1.75D-09 OVMax= 6.02D-06

 Cycle  13  Pass 1  IDiag  1:
 E= -489.937466889190     Delta-E=       -0.000000000082 Rises=F Damp=F
 DIIS: error= 1.77D-07 at cycle  13 NSaved=  13.
 NSaved=13 IEnMin=13 EnMin= -489.937466889190     IErMin=13 ErrMin= 1.77D-07
 ErrMax= 1.77D-07  0.00D+00 EMaxC= 1.00D-01 BMatC= 1.47D-12 BMatP= 1.66D-11
 IDIUse=1 WtCom= 1.00D+00 WtEn= 0.00D+00
 Coeff-Com:  0.130D-05 0.709D-06 0.161D-05-0.843D-04-0.369D-03 0.236D-03
 Coeff-Com:  0.514D-02-0.175D-01 0.226D-02 0.679D-01-0.128D+00-0.182D+00
 Coeff-Com:  0.125D+01
 Coeff:      0.130D-05 0.709D-06 0.161D-05-0.843D-04-0.369D-03 0.236D-03
 Coeff:      0.514D-02-0.175D-01 0.226D-02 0.679D-01-0.128D+00-0.182D+00
 Coeff:      0.125D+01
 Gap=     0.311 Goal=   None    Shift=    0.000
 RMSDP=3.93D-08 MaxDP=1.60D-06 DE=-8.19D-11 OVMax= 2.16D-06

 Cycle  14  Pass 1  IDiag  1:
 E= -489.937466889196     Delta-E=       -0.000000000006 Rises=F Damp=F
 DIIS: error= 6.24D-08 at cycle  14 NSaved=  14.
 NSaved=14 IEnMin=14 EnMin= -489.937466889196     IErMin=14 ErrMin= 6.24D-08
 ErrMax= 6.24D-08  0.00D+00 EMaxC= 1.00D-01 BMatC= 1.05D-13 BMatP= 1.47D-12
 IDIUse=1 WtCom= 1.00D+00 WtEn= 0.00D+00
 Coeff-Com: -0.394D-06 0.455D-06 0.201D-05 0.236D-04 0.786D-04-0.477D-04
 Coeff-Com: -0.130D-02 0.488D-02-0.324D-02-0.158D-01 0.478D-01-0.414D-02
 Coeff-Com: -0.448D+00 0.142D+01
 Coeff:     -0.394D-06 0.455D-06 0.201D-05 0.236D-04 0.786D-04-0.477D-04
 Coeff:     -0.130D-02 0.488D-02-0.324D-02-0.158D-01 0.478D-01-0.414D-02
 Coeff:     -0.448D+00 0.142D+01
 Gap=     0.311 Goal=   None    Shift=    0.000
 RMSDP=1.09D-08 MaxDP=4.15D-07 DE=-6.37D-12 OVMax= 7.12D-07

 Cycle  15  Pass 1  IDiag  1:
 E= -489.937466889198     Delta-E=       -0.000000000002 Rises=F Damp=F
 DIIS: error= 1.33D-08 at cycle  15 NSaved=  15.
 NSaved=15 IEnMin=15 EnMin= -489.937466889198     IErMin=15 ErrMin= 1.33D-08
 ErrMax= 1.33D-08  0.00D+00 EMaxC= 1.00D-01 BMatC= 7.57D-15 BMatP= 1.05D-13
 IDIUse=1 WtCom= 1.00D+00 WtEn= 0.00D+00
 Coeff-Com:  0.907D-07-0.168D-06-0.866D-06-0.569D-05-0.118D-04 0.960D-05
 Coeff-Com:  0.245D-03-0.106D-02 0.134D-02 0.287D-02-0.142D-01 0.162D-01
 Coeff-Com:  0.115D+00-0.632D+00 0.151D+01
 Coeff:      0.907D-07-0.168D-06-0.866D-06-0.569D-05-0.118D-04 0.960D-05
 Coeff:      0.245D-03-0.106D-02 0.134D-02 0.287D-02-0.142D-01 0.162D-01
 Coeff:      0.115D+00-0.632D+00 0.151D+01
 Gap=     0.311 Goal=   None    Shift=    0.000
 RMSDP=2.56D-09 MaxDP=6.47D-08 DE=-1.82D-12 OVMax= 1.68D-07

 SCF Done:  E(RHF) =  -489.937466889     A.U. after   15 cycles
            NFock= 15  Conv=0.26D-08     -V/T= 2.0005
 KE= 4.896938016268D+02 PE=-1.310899522105D+03 EE= 2.610472761822D+02
 Leave Link  502 at Wed May  4 19:05:26 2022, MaxMem=   754974720 cpu:              11.9 elap:               3.3
 (Enter /opt/cluster/programs/g16-c.01/g16/l801.exe)
 ExpMin= 3.51D-02 ExpMax= 3.74D+05 ExpMxC= 1.18D+03 IAcc=3 IRadAn=         5 AccDes= 0.00D+00
 HarFok:  IExCor=  205 AccDes= 0.00D+00 IRadAn=         5 IDoV=-2 UseB2=F ITyADJ=14
 ICtDFT= 12500011 ScaDFX=  1.000000  1.000000  1.000000  1.000000
 Largest valence mixing into a core orbital is  5.36D-04
 Largest core mixing into a valence orbital is  1.38D-04
 Range of M.O.s used for correlation:     8   142
 NBasis=   142 NAE=    15 NBE=    15 NFC=     7 NFV=     0
 NROrb=    135 NOA=     8 NOB=     8 NVA=   127 NVB=   127

 **** Warning!!: The largest alpha MO coefficient is  0.21050647D+02

 Leave Link  801 at Wed May  4 19:05:26 2022, MaxMem=   754974720 cpu:               0.4 elap:               0.1
 (Enter /opt/cluster/programs/g16-c.01/g16/l906.exe)
 Frozen-core derivative calculation, NFC=   7 NFV=   0.
 FulOut=F Deriv=T AODrv=T NAtomX=     3
   MMem=          74  MDisk=           8 MDiskD=           8
  W3Min=      359970 MinDsk=      723803 NBas6D=         169
 NBas2D=       14809    NTT=       14365    LW2=     3500000
    MDV=   754677643 MDiskM=       22268 NBas2p=       14795
 Fully direct method using O(ONN) memory.
 IMap=   1   2   3   4   5   6   7   8   9  10  11  12  13  14  15
 JobTyp=1 Pass  1:  I=   8 to  15 NPSUse=  4 ParTrn=T ParDer=T DoDerP=T.
 Spin components of T(2) and E(2):
     alpha-alpha T2 =       0.2916674182D-01 E2=     -0.6957604880D-01
     alpha-beta  T2 =       0.1530284499D+00 E2=     -0.3954250098D+00
     beta-beta   T2 =       0.2916674182D-01 E2=     -0.6957604880D-01
 The integrals were generated   1 times.
 ANorm=    0.1100618887D+01
 E2 =    -0.5345771074D+00 EUMP2 =    -0.49047204399656D+03
 Leave Link  906 at Wed May  4 19:05:35 2022, MaxMem=   754974720 cpu:              34.9 elap:               8.7
 (Enter /opt/cluster/programs/g16-c.01/g16/l1002.exe)
 Minotr:  Closed shell wavefunction.
          Computing MP2/KS-MP2 derivatives.
          Using Z-Vector for PSCF gradient.
          Skipping F1 and S1 gradient terms here.
          IDoAtm=111
          Frozen-core window.
          Direct CPHF calculation.
          Differentiating once with respect to electric field.
                with respect to dipole field.
          Differentiating once with respect to nuclear coordinates.
          Using symmetry in CPHF.
          Requested convergence is 1.0D-10 RMS, and 1.0D-09 maximum.
          NewPWx=F KeepS1=T KeepF1=T KeepIn=T MapXYZ=F SortEE=F KeepMc=T.
 Keep R1 ints in memory in symmetry-blocked form, NReq=77616884.
 FoFCou: FMM=F IPFlag=           0 FMFlag=           0 FMFlg1=           0
         NFxFlg=           0 DoJE=F BraDBF=F KetDBF=F FulRan=T
         wScrn=  0.000000 ICntrl=       600 IOpCl=  0 I1Cent=           0 NGrid=           0
         NMat0=    1 NMatS0=  10153 NMatT0=    0 NMatD0=    1 NMtDS0=    0 NMtDT0=    0
 Petite list used in FoFCou.
          MDV=     754974720 using IRadAn=       5.
          Solving linear equations separately, MaxMat=       0.
          There are     1 degrees of freedom in the 1st order CPHF.  IDoFFX=0 NUNeed=     1.
 LinEq1:  Iter=  0 NonCon=     1 RMS=5.01D-03 Max=8.22D-02 NDo=     1
 AX will form     1 AO Fock derivatives at one time.
 LinEq1:  Iter=  1 NonCon=     1 RMS=1.72D-03 Max=2.18D-02 NDo=     1
 LinEq1:  Iter=  2 NonCon=     1 RMS=6.06D-04 Max=6.31D-03 NDo=     1
 LinEq1:  Iter=  3 NonCon=     1 RMS=3.24D-04 Max=4.78D-03 NDo=     1
 LinEq1:  Iter=  4 NonCon=     1 RMS=1.38D-04 Max=2.19D-03 NDo=     1
 LinEq1:  Iter=  5 NonCon=     1 RMS=4.38D-05 Max=4.77D-04 NDo=     1
 LinEq1:  Iter=  6 NonCon=     1 RMS=1.43D-05 Max=2.20D-04 NDo=     1
 LinEq1:  Iter=  7 NonCon=     1 RMS=3.81D-06 Max=4.88D-05 NDo=     1
 LinEq1:  Iter=  8 NonCon=     1 RMS=7.43D-07 Max=6.14D-06 NDo=     1
 LinEq1:  Iter=  9 NonCon=     1 RMS=1.93D-07 Max=1.99D-06 NDo=     1
 LinEq1:  Iter= 10 NonCon=     1 RMS=4.56D-08 Max=4.92D-07 NDo=     1
 LinEq1:  Iter= 11 NonCon=     1 RMS=1.05D-08 Max=1.15D-07 NDo=     1
 LinEq1:  Iter= 12 NonCon=     1 RMS=2.08D-09 Max=2.16D-08 NDo=     1
 LinEq1:  Iter= 13 NonCon=     1 RMS=3.00D-10 Max=2.81D-09 NDo=     1
 LinEq1:  Iter= 14 NonCon=     0 RMS=4.11D-11 Max=4.02D-10 NDo=     1
 Linear equations converged to 1.000D-10 1.000D-09 after    14 iterations.
 End of Minotr F.D. properties file   721 does not exist.
 End of Minotr F.D. properties file   722 does not exist.
 End of Minotr F.D. properties file   788 does not exist.
 Leave Link 1002 at Wed May  4 19:05:39 2022, MaxMem=   754974720 cpu:              13.6 elap:               3.7
 (Enter /opt/cluster/programs/g16-c.01/g16/l601.exe)
 Copying SCF densities to generalized density rwf, IOpCl= 0 IROHF=0.

 **********************************************************************

            Population analysis using the SCF Density.

 **********************************************************************

 Orbital symmetries:
       Occupied  (A') (A') (A') (A') (A') (A") (A') (A') (A') (A')
                 (A') (A") (A') (A") (A')
       Virtual   (A') (A') (A') (A") (A') (A") (A') (A") (A') (A')
                 (A') (A') (A") (A') (A') (A") (A') (A') (A") (A')
                 (A") (A') (A') (A") (A') (A') (A") (A') (A") (A')
                 (A') (A') (A") (A') (A") (A') (A") (A') (A') (A")
                 (A') (A") (A') (A') (A") (A') (A') (A") (A') (A")
                 (A') (A') (A") (A') (A') (A") (A') (A') (A") (A')
                 (A") (A') (A') (A") (A') (A") (A') (A") (A') (A')
                 (A') (A") (A') (A") (A') (A') (A") (A') (A") (A')
                 (A") (A') (A') (A") (A') (A") (A') (A") (A') (A')
                 (A') (A") (A') (A') (A") (A') (A') (A") (A") (A')
                 (A') (A") (A') (A") (A') (A') (A") (A') (A') (A")
                 (A') (A') (A") (A') (A') (A") (A") (A') (A') (A")
                 (A') (A") (A') (A') (A') (A') (A')
 The electronic state is 1-A'.
 Alpha  occ. eigenvalues --  -91.73057 -15.35864 -11.10079  -8.73284  -6.41484
 Alpha  occ. eigenvalues --   -6.41234  -6.41232  -0.99701  -0.77309  -0.41347
 Alpha  occ. eigenvalues --   -0.33361  -0.29924  -0.29901  -0.13973  -0.13809
 Alpha virt. eigenvalues --    0.17268   0.19232   0.23347   0.23703   0.23911
 Alpha virt. eigenvalues --    0.23982   0.24868   0.29984   0.30274   0.31121
 Alpha virt. eigenvalues --    0.35389   0.38543   0.40294   0.41794   0.44397
 Alpha virt. eigenvalues --    0.44539   0.45265   0.54510   0.54540   0.54676
 Alpha virt. eigenvalues --    0.55043   0.57298   0.62545   0.63800   0.64188
 Alpha virt. eigenvalues --    0.71714   0.73110   0.75307   0.77577   0.77584
 Alpha virt. eigenvalues --    0.80089   0.81875   0.82748   0.88422   0.89416
 Alpha virt. eigenvalues --    0.91788   0.94707   0.94841   1.00146   1.03190
 Alpha virt. eigenvalues --    1.03606   1.05852   1.05867   1.12848   1.14291
 Alpha virt. eigenvalues --    1.14337   1.28564   1.28730   1.29811   1.30534
 Alpha virt. eigenvalues --    1.32565   1.34462   1.35915   1.37182   1.42632
 Alpha virt. eigenvalues --    1.43369   1.44194   1.57067   1.58255   1.58605
 Alpha virt. eigenvalues --    1.71101   1.71827   1.76777   1.84572   1.86915
 Alpha virt. eigenvalues --    1.89419   1.91919   2.02036   2.02760   2.07053
 Alpha virt. eigenvalues --    2.14058   2.15135   2.19216   2.28705   2.28765
 Alpha virt. eigenvalues --    2.33042   2.35176   2.40114   2.47337   2.48336
 Alpha virt. eigenvalues --    2.52419   2.52794   2.59719   2.59723   2.60653
 Alpha virt. eigenvalues --    2.62386   2.69013   2.69832   2.73943   2.84069
 Alpha virt. eigenvalues --    3.02839   3.03351   3.22252   3.34353   3.34843
 Alpha virt. eigenvalues --    3.60875   3.66205   3.66258   3.68982   3.68998
 Alpha virt. eigenvalues --    3.81327   3.85994   3.89179   3.93860   3.94560
 Alpha virt. eigenvalues --    4.13625   4.16960   4.28884   4.69769   4.74482
 Alpha virt. eigenvalues --    4.80508   4.94679   5.20335   5.20339   5.46629
 Alpha virt. eigenvalues --    5.46846   5.68163   5.68504   5.83877   5.87095
 Alpha virt. eigenvalues --    6.23026   6.34301   6.36042   6.42439   6.75796
 Alpha virt. eigenvalues --   11.85054  16.51612
          Condensed to atoms (all electrons):
               1          2          3
     1  N    6.831546   0.698114  -0.111289
     2  C    0.698114   5.052411   0.357591
     3  S   -0.111289   0.357591  16.227212
 Mulliken charges:
               1
     1  N   -0.418371
     2  C   -0.108116
     3  S   -0.473514
 Sum of Mulliken charges =  -1.00000
 Mulliken charges with hydrogens summed into heavy atoms:
               1
     1  N   -0.418371
     2  C   -0.108116
     3  S   -0.473514
 Electronic spatial extent (au):  <R**2>=            223.9685
 Charge=             -1.0000 electrons
 Dipole moment (field-independent basis, Debye):
    X=             -0.4891    Y=             -1.3842    Z=              0.0000  Tot=              1.4681
 Quadrupole moment (field-independent basis, Debye-Ang):
   XX=            -30.1770   YY=            -40.2055   ZZ=            -29.2909
   XY=             -3.3577   XZ=              0.0000   YZ=              0.0000
 Traceless Quadrupole moment (field-independent basis, Debye-Ang):
   XX=              3.0475   YY=             -6.9811   ZZ=              3.9336
   XY=             -3.3577   XZ=              0.0000   YZ=              0.0000
 Octapole moment (field-independent basis, Debye-Ang**2):
  XXX=              1.6645  YYY=            -19.4763  ZZZ=              0.0000  XYY=             -4.5891
  XXY=              0.9155  XXZ=              0.0000  XZZ=              0.6151  YZZ=              1.9491
  YYZ=              0.0000  XYZ=              0.0000
 Hexadecapole moment (field-independent basis, Debye-Ang**3):
 XXXX=            -61.4837 YYYY=           -304.9365 ZZZZ=            -45.9233 XXXY=            -30.5754
 XXXZ=              0.0000 YYYX=            -35.7473 YYYZ=              0.0000 ZZZX=              0.0000
 ZZZY=              0.0000 XXYY=            -61.2034 XXZZ=            -17.8799 YYZZ=            -56.6484
 XXYZ=              0.0000 YYXZ=              0.0000 ZZXY=            -10.0075
 N-N= 7.022097740643D+01 E-N=-1.310899522117D+03  KE= 4.896938016268D+02
 Symmetry A'   KE= 4.486928622726D+02
 Symmetry A"   KE= 4.100093935416D+01
 No NMR shielding tensors so no spin-rotation constants.
 Leave Link  601 at Wed May  4 19:05:39 2022, MaxMem=   754974720 cpu:               0.6 elap:               0.2
 (Enter /opt/cluster/programs/g16-c.01/g16/l701.exe)
 ... and contract with generalized density number  2.
 Compute integral first derivatives.
 Leave Link  701 at Wed May  4 19:05:39 2022, MaxMem=   754974720 cpu:               0.7 elap:               0.2
 (Enter /opt/cluster/programs/g16-c.01/g16/l702.exe)
 L702 exits ... SP integral derivatives will be done elsewhere.
 Leave Link  702 at Wed May  4 19:05:39 2022, MaxMem=   754974720 cpu:               0.1 elap:               0.0
 (Enter /opt/cluster/programs/g16-c.01/g16/l703.exe)
 Integral derivatives from FoFJK, PRISM(SPDF).
 Compute integral first derivatives, UseDBF=F ICtDFT=           0.
 Calling FoFJK, ICntrl=  10002127 FMM=F ISym2X=1 I1Cent= 0 IOpClX= 0 NMat=1 NMatS=1 NMatT=0.
 FoFJK:  IHMeth= 1 ICntrl=10002127 DoSepK=F KAlg= 0 I1Cent=           0 FoldK=F
 IRaf=         0 NMat=       1 IRICut=       1 DoRegI=T DoRafI=F ISym2E= 1 IDoP0=0 IntGTp=1.
 FoFCou: FMM=F IPFlag=           0 FMFlag=      100000 FMFlg1=         800
         NFxFlg=           0 DoJE=F BraDBF=F KetDBF=F FulRan=T
         wScrn=  0.000000 ICntrl=  10002127 IOpCl=  0 I1Cent=           0 NGrid=           0
         NMat0=    1 NMatS0=      1 NMatT0=    0 NMatD0=    1 NMtDS0=    0 NMtDT0=    0
 Petite list used in FoFCou.
 Leave Link  703 at Wed May  4 19:05:43 2022, MaxMem=   754974720 cpu:              14.4 elap:               3.6
 (Enter /opt/cluster/programs/g16-c.01/g16/l716.exe)
 Dipole        =-1.52869557D-01-5.26489322D-01 0.00000000D+00
 ***** Axes restored to original set *****
 -------------------------------------------------------------------
 Center     Atomic                   Forces (Hartrees/Bohr)
 Number     Number              X              Y              Z
 -------------------------------------------------------------------
      1        7          -0.016150232   -0.000000000   -0.003504785
      2        6           0.026165203   -0.000000000   -0.003391831
      3       16          -0.010014971   -0.000000000    0.006896616
 -------------------------------------------------------------------
 Cartesian Forces:  Max     0.026165203 RMS     0.011141010
 Leave Link  716 at Wed May  4 19:05:43 2022, MaxMem=   754974720 cpu:               0.3 elap:               0.1
 (Enter /opt/cluster/programs/g16-c.01/g16/l103.exe)

 GradGradGradGradGradGradGradGradGradGradGradGradGradGradGradGradGradGrad
 Berny optimization.
 FormGI is forming the generalized inverse of G from B-inverse, IUseBI=4.
 Internal  Forces:  Max     0.036390149 RMS     0.021213004
 Search for a local minimum.
 Step number   1 out of a maximum of   20
 All quantities printed in internal units (Hartrees-Bohrs-Radians)
 RMS Force = .35869D-02 SwitMx=.10000D-02 MixMth= 1
 Mixed Optimization -- RFO/linear search
 Second derivative matrix not updated -- first step.
 The second derivative matrix:
                          R1        R2        A1
           R1           1.08759
           R2           0.00000   0.41030
           A1           0.00000   0.00000   0.25000
 ITU=  0
     Eigenvalues ---    0.41030   1.087591000.00000
 RFO step:  Lambda=-4.40706905D-05 EMin= 4.10299174D-01
 Linear search not attempted -- first point.
 Iteration  1 RMS(Cart)=  0.00511406 RMS(Int)=  0.00000006
 Iteration  2 RMS(Cart)=  0.00000006 RMS(Int)=  0.00000000
 Iteration  1 RMS(Cart)=  0.00000000 RMS(Int)=  0.00000000
 ITry= 1 IFail=0 DXMaxC= 6.81D-03 DCOld= 1.00D+10 DXMaxT= 3.00D-01 DXLimC= 3.00D+00 Rises=F
 ClnCor:  largest displacement from symmetrization is 5.13D-16 for atom     1.
 Variable       Old X    -DE/DX   Delta X   Delta X   Delta X     New X
                                 (Linear)    (Quad)   (Total)
    R1        2.25323   0.00350   0.00000   0.00322   0.00322   2.25645
    R2        3.13877   0.00367   0.00000   0.00894   0.00894   3.14771
    A1        2.84489   0.03639   0.00000   0.00000   0.00000   2.84489
         Item               Value     Threshold  Converged?
 Maximum Force            0.003667     0.000450     NO 
 RMS     Force            0.003587     0.000300     NO 
 Maximum Displacement     0.006813     0.001800     NO 
 RMS     Displacement     0.005114     0.001200     NO 
 Predicted change in Energy=-2.203535D-05
 Lowest energy point so far.  Saving SCF results.
 GradGradGradGradGradGradGradGradGradGradGradGradGradGradGradGradGradGrad

 Leave Link  103 at Wed May  4 19:05:43 2022, MaxMem=   754974720 cpu:               0.2 elap:               0.1
 (Enter /opt/cluster/programs/g16-c.01/g16/l202.exe)
                          Input orientation:                          
 ---------------------------------------------------------------------
 Center     Atomic      Atomic             Coordinates (Angstroms)
 Number     Number       Type             X           Y           Z
 ---------------------------------------------------------------------
      1          7           0       -0.000371    0.000000   -1.823598
      2          6           0       -0.000452    0.000000   -0.629536
      3         16           0        0.486443    0.000000    0.963411
 ---------------------------------------------------------------------
                    Distance matrix (angstroms):
                    1          2          3
     1  N    0.000000
     2  C    1.194062   0.000000
     3  S    2.829206   1.665697   0.000000
 Stoichiometry    CNS(1-)
 Framework group  CS[SG(CNS)]
 Deg. of freedom     3
 Full point group                 CS      NOp   2
 RotChk:  IX=0 Diff= 4.64D-04
 Largest Abelian subgroup         CS      NOp   2
 Largest concise Abelian subgroup C1      NOp   1
                         Standard orientation:                         
 ---------------------------------------------------------------------
 Center     Atomic      Atomic             Coordinates (Angstroms)
 Number     Number       Type             X           Y           Z
 ---------------------------------------------------------------------
      1          7           0        0.494448    1.735751   -0.000000
      2          6           0       -0.000000    0.648872   -0.000000
      3         16           0       -0.216321   -1.002718    0.000000
 ---------------------------------------------------------------------
 Rotational constants (GHZ):        1353.6402604           6.0211700           5.9945056
 Leave Link  202 at Wed May  4 19:05:43 2022, MaxMem=   754974720 cpu:               0.0 elap:               0.0
 (Enter /opt/cluster/programs/g16-c.01/g16/l301.exe)
 Standard basis: Aug-CC-pVTZ (5D, 7F)
 Ernie: Thresh=  0.10000D-02 Tol=  0.10000D-05 Strict=F.
 Ernie:  19 primitive shells out of 124 were deleted.
 There are   114 symmetry adapted cartesian basis functions of A'  symmetry.
 There are    55 symmetry adapted cartesian basis functions of A"  symmetry.
 There are    93 symmetry adapted basis functions of A'  symmetry.
 There are    49 symmetry adapted basis functions of A"  symmetry.
   142 basis functions,   258 primitive gaussians,   169 cartesian basis functions
    15 alpha electrons       15 beta electrons
       nuclear repulsion energy        70.0602289411 Hartrees.
 IExCor=    0 DFT=F Ex=HF Corr=None ExCW=0 ScaHFX=  1.000000
 ScaDFX=  1.000000  1.000000  1.000000  1.000000 ScalE2=  1.000000  1.000000
 IRadAn=      5 IRanWt=     -1 IRanGd=            0 ICorTp=0 IEmpDi=  4
 NAtoms=    3 NActive=    3 NUniq=    3 SFac= 1.00D+00 NAtFMM=   60 NAOKFM=F Big=F
 Integral buffers will be    131072 words long.
 Raffenetti 1 integral format.
 Two-electron integral symmetry is turned on.
 Leave Link  301 at Wed May  4 19:05:43 2022, MaxMem=   754974720 cpu:               0.3 elap:               0.1
 (Enter /opt/cluster/programs/g16-c.01/g16/l302.exe)
 NPDir=0 NMtPBC=     1 NCelOv=     1 NCel=       1 NClECP=     1 NCelD=      1
         NCelK=      1 NCelE2=     1 NClLst=     1 CellRange=     0.0.
 One-electron integrals computed using PRISM.
 One-electron integral symmetry used in STVInt
 NBasis=   142 RedAO= T EigKep=  1.04D-04  NBF=    93    49
 NBsUse=   142 1.00D-06 EigRej= -1.00D+00 NBFU=    93    49
 Leave Link  302 at Wed May  4 19:05:43 2022, MaxMem=   754974720 cpu:               0.8 elap:               0.2
 (Enter /opt/cluster/programs/g16-c.01/g16/l303.exe)
 DipDrv:  MaxL=1.
 Leave Link  303 at Wed May  4 19:05:43 2022, MaxMem=   754974720 cpu:               0.2 elap:               0.1
 (Enter /opt/cluster/programs/g16-c.01/g16/l401.exe)
 Initial guess from the checkpoint file:  "gaussian_4_scn.chk"
 B after Tr=    -0.000000    0.000000    0.000000
         Rot=    1.000000    0.000000   -0.000000   -0.000168 Ang=  -0.02 deg.
 Guess basis will be translated and rotated to current coordinates.
 JPrj=2 DoOrth=T DoCkMO=T.
 Initial guess orbital symmetries:
       Occupied  (A') (A') (A') (A') (A') (A") (A') (A') (A') (A')
                 (A') (A") (A') (A") (A')
       Virtual   (A') (A') (A') (A") (A') (A") (A') (A") (A') (A')
                 (A') (A') (A") (A') (A') (A") (A') (A') (A") (A')
                 (A") (A') (A') (A") (A') (A') (A") (A') (A") (A')
                 (A') (A') (A") (A') (A") (A') (A") (A') (A') (A")
                 (A') (A") (A') (A') (A") (A') (A') (A") (A') (A")
                 (A') (A') (A") (A') (A') (A") (A') (A') (A") (A')
                 (A") (A') (A') (A") (A') (A") (A') (A") (A') (A')
                 (A') (A") (A') (A") (A') (A') (A") (A') (A") (A')
                 (A") (A') (A') (A") (A') (A") (A') (A") (A') (A')
                 (A') (A") (A') (A') (A") (A') (A') (A") (A") (A')
                 (A') (A") (A') (A") (A') (A') (A") (A') (A') (A")
                 (A') (A') (A") (A') (A') (A") (A") (A') (A') (A")
                 (A') (A") (A') (A') (A') (A') (A')
 The electronic state of the initial guess is 1-A'.
 Leave Link  401 at Wed May  4 19:05:44 2022, MaxMem=   754974720 cpu:               0.7 elap:               0.2
 (Enter /opt/cluster/programs/g16-c.01/g16/l502.exe)
 Keep R1 ints in memory in symmetry-blocked form, NReq=77616006.
 FoFCou: FMM=F IPFlag=           0 FMFlag=           0 FMFlg1=           0
         NFxFlg=           0 DoJE=F BraDBF=F KetDBF=F FulRan=T
         wScrn=  0.000000 ICntrl=       600 IOpCl=  0 I1Cent=           0 NGrid=           0
         NMat0=    1 NMatS0=  10153 NMatT0=    0 NMatD0=    1 NMtDS0=    0 NMtDT0=    0
 Petite list used in FoFCou.
 Closed shell SCF:
 Using DIIS extrapolation, IDIIS=  1040.
 NGot=   754974720 LenX=   728846748 LenY=   728817746
 Requested convergence on RMS density matrix=1.00D-08 within 200 cycles.
 Requested convergence on MAX density matrix=1.00D-06.
 Requested convergence on             energy=1.00D-06.
 No special actions if energy rises.

 Cycle   1  Pass 1  IDiag  1:
 E= -489.937211111633    
 DIIS: error= 3.00D-04 at cycle   1 NSaved=   1.
 NSaved= 1 IEnMin= 1 EnMin= -489.937211111633     IErMin= 1 ErrMin= 3.00D-04
 ErrMax= 3.00D-04  0.00D+00 EMaxC= 1.00D-01 BMatC= 7.39D-06 BMatP= 7.39D-06
 IDIUse=3 WtCom= 9.97D-01 WtEn= 3.00D-03
 Coeff-Com:  0.100D+01
 Coeff-En:   0.100D+01
 Coeff:      0.100D+01
 Gap=     0.311 Goal=   None    Shift=    0.000
 RMSDP=2.84D-05 MaxDP=7.80D-04              OVMax= 9.13D-04

 Cycle   2  Pass 1  IDiag  1:
 E= -489.937218964338     Delta-E=       -0.000007852705 Rises=F Damp=F
 DIIS: error= 1.44D-04 at cycle   2 NSaved=   2.
 NSaved= 2 IEnMin= 2 EnMin= -489.937218964338     IErMin= 2 ErrMin= 1.44D-04
 ErrMax= 1.44D-04  0.00D+00 EMaxC= 1.00D-01 BMatC= 9.71D-07 BMatP= 7.39D-06
 IDIUse=3 WtCom= 9.99D-01 WtEn= 1.44D-03
 Coeff-Com:  0.136D+00 0.864D+00
 Coeff-En:   0.000D+00 0.100D+01
 Coeff:      0.136D+00 0.864D+00
 Gap=     0.311 Goal=   None    Shift=    0.000
 RMSDP=8.01D-06 MaxDP=2.18D-04 DE=-7.85D-06 OVMax= 4.90D-04

 Cycle   3  Pass 1  IDiag  1:
 E= -489.937220042920     Delta-E=       -0.000001078582 Rises=F Damp=F
 DIIS: error= 7.29D-05 at cycle   3 NSaved=   3.
 NSaved= 3 IEnMin= 3 EnMin= -489.937220042920     IErMin= 3 ErrMin= 7.29D-05
 ErrMax= 7.29D-05  0.00D+00 EMaxC= 1.00D-01 BMatC= 2.24D-07 BMatP= 9.71D-07
 IDIUse=1 WtCom= 1.00D+00 WtEn= 0.00D+00
 Coeff-Com: -0.707D-01 0.238D+00 0.833D+00
 Coeff:     -0.707D-01 0.238D+00 0.833D+00
 Gap=     0.311 Goal=   None    Shift=    0.000
 RMSDP=2.62D-06 MaxDP=6.26D-05 DE=-1.08D-06 OVMax= 2.12D-04

 Cycle   4  Pass 1  IDiag  1:
 E= -489.937220340487     Delta-E=       -0.000000297567 Rises=F Damp=F
 DIIS: error= 2.07D-05 at cycle   4 NSaved=   4.
 NSaved= 4 IEnMin= 4 EnMin= -489.937220340487     IErMin= 4 ErrMin= 2.07D-05
 ErrMax= 2.07D-05  0.00D+00 EMaxC= 1.00D-01 BMatC= 3.01D-08 BMatP= 2.24D-07
 IDIUse=1 WtCom= 1.00D+00 WtEn= 0.00D+00
 Coeff-Com: -0.319D-01-0.207D-01 0.253D+00 0.800D+00
 Coeff:     -0.319D-01-0.207D-01 0.253D+00 0.800D+00
 Gap=     0.311 Goal=   None    Shift=    0.000
 RMSDP=1.37D-06 MaxDP=2.96D-05 DE=-2.98D-07 OVMax= 8.67D-05

 Cycle   5  Pass 1  IDiag  1:
 E= -489.937220386174     Delta-E=       -0.000000045687 Rises=F Damp=F
 DIIS: error= 1.02D-05 at cycle   5 NSaved=   5.
 NSaved= 5 IEnMin= 5 EnMin= -489.937220386174     IErMin= 5 ErrMin= 1.02D-05
 ErrMax= 1.02D-05  0.00D+00 EMaxC= 1.00D-01 BMatC= 4.20D-09 BMatP= 3.01D-08
 IDIUse=1 WtCom= 1.00D+00 WtEn= 0.00D+00
 Coeff-Com:  0.103D-01-0.565D-01-0.120D+00 0.125D+00 0.104D+01
 Coeff:      0.103D-01-0.565D-01-0.120D+00 0.125D+00 0.104D+01
 Gap=     0.311 Goal=   None    Shift=    0.000
 RMSDP=8.33D-07 MaxDP=2.53D-05 DE=-4.57D-08 OVMax= 5.00D-05

 Cycle   6  Pass 1  IDiag  1:
 E= -489.937220396350     Delta-E=       -0.000000010176 Rises=F Damp=F
 DIIS: error= 1.91D-06 at cycle   6 NSaved=   6.
 NSaved= 6 IEnMin= 6 EnMin= -489.937220396350     IErMin= 6 ErrMin= 1.91D-06
 ErrMax= 1.91D-06  0.00D+00 EMaxC= 1.00D-01 BMatC= 2.82D-10 BMatP= 4.20D-09
 IDIUse=1 WtCom= 1.00D+00 WtEn= 0.00D+00
 Coeff-Com:  0.311D-02 0.236D-02-0.265D-01-0.654D-01 0.141D-01 0.107D+01
 Coeff:      0.311D-02 0.236D-02-0.265D-01-0.654D-01 0.141D-01 0.107D+01
 Gap=     0.311 Goal=   None    Shift=    0.000
 RMSDP=2.20D-07 MaxDP=4.65D-06 DE=-1.02D-08 OVMax= 1.58D-05

 Cycle   7  Pass 1  IDiag  1:
 E= -489.937220397275     Delta-E=       -0.000000000925 Rises=F Damp=F
 DIIS: error= 1.25D-06 at cycle   7 NSaved=   7.
 NSaved= 7 IEnMin= 7 EnMin= -489.937220397275     IErMin= 7 ErrMin= 1.25D-06
 ErrMax= 1.25D-06  0.00D+00 EMaxC= 1.00D-01 BMatC= 4.05D-11 BMatP= 2.82D-10
 IDIUse=1 WtCom= 1.00D+00 WtEn= 0.00D+00
 Coeff-Com: -0.124D-02 0.789D-02 0.119D-01-0.106D-01-0.154D+00 0.334D-01
 Coeff-Com:  0.111D+01
 Coeff:     -0.124D-02 0.789D-02 0.119D-01-0.106D-01-0.154D+00 0.334D-01
 Coeff:      0.111D+01
 Gap=     0.311 Goal=   None    Shift=    0.000
 RMSDP=9.43D-08 MaxDP=2.49D-06 DE=-9.25D-10 OVMax= 6.30D-06

 Cycle   8  Pass 1  IDiag  1:
 E= -489.937220397384     Delta-E=       -0.000000000109 Rises=F Damp=F
 DIIS: error= 1.99D-07 at cycle   8 NSaved=   8.
 NSaved= 8 IEnMin= 8 EnMin= -489.937220397384     IErMin= 8 ErrMin= 1.99D-07
 ErrMax= 1.99D-07  0.00D+00 EMaxC= 1.00D-01 BMatC= 1.43D-12 BMatP= 4.05D-11
 IDIUse=1 WtCom= 1.00D+00 WtEn= 0.00D+00
 Coeff-Com: -0.224D-05-0.761D-03-0.327D-03 0.491D-02 0.111D-01-0.330D-01
 Coeff-Com: -0.175D+00 0.119D+01
 Coeff:     -0.224D-05-0.761D-03-0.327D-03 0.491D-02 0.111D-01-0.330D-01
 Coeff:     -0.175D+00 0.119D+01
 Gap=     0.311 Goal=   None    Shift=    0.000
 RMSDP=2.41D-08 MaxDP=8.39D-07 DE=-1.09D-10 OVMax= 1.15D-06

 Cycle   9  Pass 1  IDiag  1:
 E= -489.937220397388     Delta-E=       -0.000000000004 Rises=F Damp=F
 DIIS: error= 5.01D-08 at cycle   9 NSaved=   9.
 NSaved= 9 IEnMin= 9 EnMin= -489.937220397388     IErMin= 9 ErrMin= 5.01D-08
 ErrMax= 5.01D-08  0.00D+00 EMaxC= 1.00D-01 BMatC= 1.55D-13 BMatP= 1.43D-12
 IDIUse=1 WtCom= 1.00D+00 WtEn= 0.00D+00
 Coeff-Com:  0.708D-04-0.292D-03-0.714D-03 0.263D-03 0.678D-02 0.374D-02
 Coeff-Com: -0.345D-01-0.243D+00 0.127D+01
 Coeff:      0.708D-04-0.292D-03-0.714D-03 0.263D-03 0.678D-02 0.374D-02
 Coeff:     -0.345D-01-0.243D+00 0.127D+01
 Gap=     0.311 Goal=   None    Shift=    0.000
 RMSDP=8.40D-09 MaxDP=3.16D-07 DE=-3.98D-12 OVMax= 4.98D-07

 SCF Done:  E(RHF) =  -489.937220397     A.U. after    9 cycles
            NFock=  9  Conv=0.84D-08     -V/T= 2.0005
 KE= 4.896749011836D+02 PE=-1.310554325535D+03 EE= 2.608819750124D+02
 Leave Link  502 at Wed May  4 19:05:47 2022, MaxMem=   754974720 cpu:              12.9 elap:               3.4
 (Enter /opt/cluster/programs/g16-c.01/g16/l801.exe)
 ExpMin= 3.51D-02 ExpMax= 3.74D+05 ExpMxC= 1.18D+03 IAcc=3 IRadAn=         5 AccDes= 0.00D+00
 HarFok:  IExCor=  205 AccDes= 0.00D+00 IRadAn=         5 IDoV=-2 UseB2=F ITyADJ=14
 ICtDFT= 12500011 ScaDFX=  1.000000  1.000000  1.000000  1.000000
 Largest valence mixing into a core orbital is  5.37D-04
 Largest core mixing into a valence orbital is  1.39D-04
 Range of M.O.s used for correlation:     8   142
 NBasis=   142 NAE=    15 NBE=    15 NFC=     7 NFV=     0
 NROrb=    135 NOA=     8 NOB=     8 NVA=   127 NVB=   127

 **** Warning!!: The largest alpha MO coefficient is  0.21024062D+02

 Leave Link  801 at Wed May  4 19:05:47 2022, MaxMem=   754974720 cpu:               0.4 elap:               0.1
 (Enter /opt/cluster/programs/g16-c.01/g16/l906.exe)
 Frozen-core derivative calculation, NFC=   7 NFV=   0.
 FulOut=F Deriv=T AODrv=T NAtomX=     3
   MMem=          74  MDisk=           8 MDiskD=           8
  W3Min=      359970 MinDsk=      723803 NBas6D=         169
 NBas2D=       14809    NTT=       14365    LW2=     3500000
    MDV=   754677657 MDiskM=       22268 NBas2p=       14795
 Fully direct method using O(ONN) memory.
 IMap=   1   2   3   4   5   6   7   8   9  10  11  12  13  14  15
 JobTyp=1 Pass  1:  I=   8 to  15 NPSUse=  4 ParTrn=T ParDer=T DoDerP=T.
 Spin components of T(2) and E(2):
     alpha-alpha T2 =       0.2921631440D-01 E2=     -0.6959503930D-01
     alpha-beta  T2 =       0.1533420724D+00 E2=     -0.3956586070D+00
     beta-beta   T2 =       0.2921631440D-01 E2=     -0.6959503930D-01
 The integrals were generated   1 times.
 ANorm=    0.1100806387D+01
 E2 =    -0.5348486856D+00 EUMP2 =    -0.49047206908297D+03
 Leave Link  906 at Wed May  4 19:05:56 2022, MaxMem=   754974720 cpu:              31.7 elap:               9.1
 (Enter /opt/cluster/programs/g16-c.01/g16/l1002.exe)
 Minotr:  Closed shell wavefunction.
          Computing MP2/KS-MP2 derivatives.
          Using Z-Vector for PSCF gradient.
          Skipping F1 and S1 gradient terms here.
          IDoAtm=111
          Frozen-core window.
          Direct CPHF calculation.
          Differentiating once with respect to electric field.
                with respect to dipole field.
          Differentiating once with respect to nuclear coordinates.
          Using symmetry in CPHF.
          Requested convergence is 1.0D-10 RMS, and 1.0D-09 maximum.
          NewPWx=F KeepS1=T KeepF1=T KeepIn=T MapXYZ=F SortEE=F KeepMc=T.
 Keep R1 ints in memory in symmetry-blocked form, NReq=77616884.
 FoFCou: FMM=F IPFlag=           0 FMFlag=           0 FMFlg1=           0
         NFxFlg=           0 DoJE=F BraDBF=F KetDBF=F FulRan=T
         wScrn=  0.000000 ICntrl=       600 IOpCl=  0 I1Cent=           0 NGrid=           0
         NMat0=    1 NMatS0=  10153 NMatT0=    0 NMatD0=    1 NMtDS0=    0 NMtDT0=    0
 Petite list used in FoFCou.
          MDV=     754974720 using IRadAn=       5.
          Solving linear equations separately, MaxMat=       0.
          There are     1 degrees of freedom in the 1st order CPHF.  IDoFFX=0 NUNeed=     1.
 LinEq1:  Iter=  0 NonCon=     1 RMS=5.03D-03 Max=8.23D-02 NDo=     1
 AX will form     1 AO Fock derivatives at one time.
 LinEq1:  Iter=  1 NonCon=     1 RMS=1.73D-03 Max=2.19D-02 NDo=     1
 LinEq1:  Iter=  2 NonCon=     1 RMS=6.11D-04 Max=6.42D-03 NDo=     1
 LinEq1:  Iter=  3 NonCon=     1 RMS=3.30D-04 Max=4.86D-03 NDo=     1
 LinEq1:  Iter=  4 NonCon=     1 RMS=1.40D-04 Max=2.21D-03 NDo=     1
 LinEq1:  Iter=  5 NonCon=     1 RMS=4.43D-05 Max=4.85D-04 NDo=     1
 LinEq1:  Iter=  6 NonCon=     1 RMS=1.45D-05 Max=2.22D-04 NDo=     1
 LinEq1:  Iter=  7 NonCon=     1 RMS=3.86D-06 Max=4.91D-05 NDo=     1
 LinEq1:  Iter=  8 NonCon=     1 RMS=7.53D-07 Max=6.23D-06 NDo=     1
 LinEq1:  Iter=  9 NonCon=     1 RMS=1.96D-07 Max=2.04D-06 NDo=     1
 LinEq1:  Iter= 10 NonCon=     1 RMS=4.63D-08 Max=5.03D-07 NDo=     1
 LinEq1:  Iter= 11 NonCon=     1 RMS=1.07D-08 Max=1.16D-07 NDo=     1
 LinEq1:  Iter= 12 NonCon=     1 RMS=2.11D-09 Max=2.21D-08 NDo=     1
 LinEq1:  Iter= 13 NonCon=     1 RMS=3.04D-10 Max=2.86D-09 NDo=     1
 LinEq1:  Iter= 14 NonCon=     0 RMS=4.16D-11 Max=4.03D-10 NDo=     1
 Linear equations converged to 1.000D-10 1.000D-09 after    14 iterations.
 End of Minotr F.D. properties file   721 does not exist.
 End of Minotr F.D. properties file   722 does not exist.
 End of Minotr F.D. properties file   788 does not exist.
 Leave Link 1002 at Wed May  4 19:06:01 2022, MaxMem=   754974720 cpu:              15.2 elap:               4.2
 (Enter /opt/cluster/programs/g16-c.01/g16/l701.exe)
 ... and contract with generalized density number  2.
 Compute integral first derivatives.
 Leave Link  701 at Wed May  4 19:06:01 2022, MaxMem=   754974720 cpu:               0.8 elap:               0.2
 (Enter /opt/cluster/programs/g16-c.01/g16/l702.exe)
 L702 exits ... SP integral derivatives will be done elsewhere.
 Leave Link  702 at Wed May  4 19:06:01 2022, MaxMem=   754974720 cpu:               0.1 elap:               0.0
 (Enter /opt/cluster/programs/g16-c.01/g16/l703.exe)
 Integral derivatives from FoFJK, PRISM(SPDF).
 Compute integral first derivatives, UseDBF=F ICtDFT=           0.
 Calling FoFJK, ICntrl=  10002127 FMM=F ISym2X=1 I1Cent= 0 IOpClX= 0 NMat=1 NMatS=1 NMatT=0.
 FoFJK:  IHMeth= 1 ICntrl=10002127 DoSepK=F KAlg= 0 I1Cent=           0 FoldK=F
 IRaf=         0 NMat=       1 IRICut=       1 DoRegI=T DoRafI=F ISym2E= 1 IDoP0=0 IntGTp=1.
 FoFCou: FMM=F IPFlag=           0 FMFlag=      100000 FMFlg1=         800
         NFxFlg=           0 DoJE=F BraDBF=F KetDBF=F FulRan=T
         wScrn=  0.000000 ICntrl=  10002127 IOpCl=  0 I1Cent=           0 NGrid=           0
         NMat0=    1 NMatS0=      1 NMatT0=    0 NMatD0=    1 NMtDS0=    0 NMtDT0=    0
 Petite list used in FoFCou.
 Leave Link  703 at Wed May  4 19:06:05 2022, MaxMem=   754974720 cpu:              15.3 elap:               3.9
 (Enter /opt/cluster/programs/g16-c.01/g16/l716.exe)
 Dipole        =-1.51838768D-01-5.23473193D-01-1.84725028D-30
 ***** Axes restored to original set *****
 -------------------------------------------------------------------
 Center     Atomic                   Forces (Hartrees/Bohr)
 Number     Number              X              Y              Z
 -------------------------------------------------------------------
      1        7          -0.015987252    0.000000000   -0.000164409
      2        6           0.026760149   -0.000000000   -0.003797575
      3       16          -0.010772897    0.000000000    0.003961984
 -------------------------------------------------------------------
 Cartesian Forces:  Max     0.026760149 RMS     0.011144999
 Leave Link  716 at Wed May  4 19:06:05 2022, MaxMem=   754974720 cpu:               0.2 elap:               0.1
 (Enter /opt/cluster/programs/g16-c.01/g16/l103.exe)

 GradGradGradGradGradGradGradGradGradGradGradGradGradGradGradGradGradGrad
 Berny optimization.
 Using GEDIIS/GDIIS optimizer.
 FormGI is forming the generalized inverse of G from B-inverse, IUseBI=4.
 Internal  Forces:  Max     0.036074423 RMS     0.020831068
 Search for a local minimum.
 Step number   2 out of a maximum of   20
 All quantities printed in internal units (Hartrees-Bohrs-Radians)
 RMS Force = .46702D-03 SwitMx=.10000D-02 MixMth= 2
 Mixed Optimization -- En-DIIS/RFO-DIIS
 Update second derivatives using D2CorX and points    1    2
 DE= -2.51D-05 DEPred=-2.20D-05 R= 1.14D+00
 TightC=F SS=  1.41D+00  RLast= 9.50D-03 DXNew= 5.0454D-01 2.8500D-02
 Trust test= 1.14D+00 RLast= 9.50D-03 DXMaxT set to 3.00D-01
 The second derivative matrix:
                          R1        R2        A1
           R1           1.10405
           R2          -0.02420   0.34746
           A1           0.02789   0.02527   0.25264
 ITU=  1  0
 Use linear search instead of GDIIS.
     Eigenvalues ---    0.34669   1.104831000.00000
 RFO step:  Lambda=-1.90684249D-07 EMin= 3.46687184D-01
 Quartic linear search produced a step of  0.16728.
 Iteration  1 RMS(Cart)=  0.00093051 RMS(Int)=  0.00000001
 Iteration  2 RMS(Cart)=  0.00000001 RMS(Int)=  0.00000000
 Iteration  1 RMS(Cart)=  0.00000000 RMS(Int)=  0.00000000
 ITry= 1 IFail=0 DXMaxC= 1.28D-03 DCOld= 1.00D+10 DXMaxT= 3.00D-01 DXLimC= 3.00D+00 Rises=F
 ClnCor:  largest displacement from symmetrization is 2.67D-15 for atom     1.
 Variable       Old X    -DE/DX   Delta X   Delta X   Delta X     New X
                                 (Linear)    (Quad)   (Total)
    R1        2.25645   0.00016   0.00054  -0.00035   0.00019   2.25664
    R2        3.14771   0.00064   0.00149   0.00038   0.00188   3.14959
    A1        2.84489   0.03607   0.00000   0.00000   0.00000   2.84489
         Item               Value     Threshold  Converged?
 Maximum Force            0.000640     0.000450     NO 
 RMS     Force            0.000467     0.000300     NO 
 Maximum Displacement     0.001276     0.001800     YES
 RMS     Displacement     0.000931     0.001200     YES
 Predicted change in Energy=-6.088236D-07
 Lowest energy point so far.  Saving SCF results.
 GradGradGradGradGradGradGradGradGradGradGradGradGradGradGradGradGradGrad

 Leave Link  103 at Wed May  4 19:06:05 2022, MaxMem=   754974720 cpu:               0.0 elap:               0.0
 (Enter /opt/cluster/programs/g16-c.01/g16/l202.exe)
                          Input orientation:                          
 ---------------------------------------------------------------------
 Center     Atomic      Atomic             Coordinates (Angstroms)
 Number     Number       Type             X           Y           Z
 ---------------------------------------------------------------------
      1          7           0       -0.000436   -0.000000   -1.823987
      2          6           0       -0.000546    0.000000   -0.629823
      3         16           0        0.486602   -0.000000    0.964086
 ---------------------------------------------------------------------
                    Distance matrix (angstroms):
                    1          2          3
     1  N    0.000000
     2  C    1.194164   0.000000
     3  S    2.830293   1.666691   0.000000
 Stoichiometry    CNS(1-)
 Framework group  CS[SG(CNS)]
 Deg. of freedom     3
 Full point group                 CS      NOp   2
 RotChk:  IX=0 Diff= 1.67D-04
 Largest Abelian subgroup         CS      NOp   2
 Largest concise Abelian subgroup C1      NOp   1
                         Standard orientation:                         
 ---------------------------------------------------------------------
 Center     Atomic      Atomic             Coordinates (Angstroms)
 Number     Number       Type             X           Y           Z
 ---------------------------------------------------------------------
      1          7           0        0.494388    1.736412   -0.000000
      2          6           0        0.000000    0.649394   -0.000000
      3         16           0       -0.216295   -1.003203    0.000000
 ---------------------------------------------------------------------
 Rotational constants (GHZ):        1352.9222563           6.0161596           5.9895255
 Leave Link  202 at Wed May  4 19:06:05 2022, MaxMem=   754974720 cpu:               0.1 elap:               0.0
 (Enter /opt/cluster/programs/g16-c.01/g16/l301.exe)
 Standard basis: Aug-CC-pVTZ (5D, 7F)
 Ernie: Thresh=  0.10000D-02 Tol=  0.10000D-05 Strict=F.
 Ernie:  19 primitive shells out of 124 were deleted.
 There are   114 symmetry adapted cartesian basis functions of A'  symmetry.
 There are    55 symmetry adapted cartesian basis functions of A"  symmetry.
 There are    93 symmetry adapted basis functions of A'  symmetry.
 There are    49 symmetry adapted basis functions of A"  symmetry.
   142 basis functions,   258 primitive gaussians,   169 cartesian basis functions
    15 alpha electrons       15 beta electrons
       nuclear repulsion energy        70.0324185840 Hartrees.
 IExCor=    0 DFT=F Ex=HF Corr=None ExCW=0 ScaHFX=  1.000000
 ScaDFX=  1.000000  1.000000  1.000000  1.000000 ScalE2=  1.000000  1.000000
 IRadAn=      5 IRanWt=     -1 IRanGd=            0 ICorTp=0 IEmpDi=  4
 NAtoms=    3 NActive=    3 NUniq=    3 SFac= 1.00D+00 NAtFMM=   60 NAOKFM=F Big=F
 Integral buffers will be    131072 words long.
 Raffenetti 1 integral format.
 Two-electron integral symmetry is turned on.
 Leave Link  301 at Wed May  4 19:06:05 2022, MaxMem=   754974720 cpu:               0.2 elap:               0.1
 (Enter /opt/cluster/programs/g16-c.01/g16/l302.exe)
 NPDir=0 NMtPBC=     1 NCelOv=     1 NCel=       1 NClECP=     1 NCelD=      1
         NCelK=      1 NCelE2=     1 NClLst=     1 CellRange=     0.0.
 One-electron integrals computed using PRISM.
 One-electron integral symmetry used in STVInt
 NBasis=   142 RedAO= T EigKep=  1.04D-04  NBF=    93    49
 NBsUse=   142 1.00D-06 EigRej= -1.00D+00 NBFU=    93    49
 Leave Link  302 at Wed May  4 19:06:05 2022, MaxMem=   754974720 cpu:               0.6 elap:               0.2
 (Enter /opt/cluster/programs/g16-c.01/g16/l303.exe)
 DipDrv:  MaxL=1.
 Leave Link  303 at Wed May  4 19:06:06 2022, MaxMem=   754974720 cpu:               0.6 elap:               0.3
 (Enter /opt/cluster/programs/g16-c.01/g16/l401.exe)
 Initial guess from the checkpoint file:  "gaussian_4_scn.chk"
 B after Tr=     0.000000   -0.000000    0.000000
         Rot=    1.000000    0.000000   -0.000000   -0.000061 Ang=  -0.01 deg.
 Guess basis will be translated and rotated to current coordinates.
 JPrj=2 DoOrth=T DoCkMO=T.
 Initial guess orbital symmetries:
       Occupied  (A') (A') (A') (A') (A') (A") (A') (A') (A') (A')
                 (A') (A") (A') (A") (A')
       Virtual   (A') (A') (A') (A") (A') (A") (A') (A") (A') (A')
                 (A') (A') (A") (A') (A') (A") (A') (A') (A") (A')
                 (A") (A') (A') (A") (A') (A') (A") (A') (A") (A')
                 (A') (A') (A") (A') (A") (A') (A") (A') (A') (A")
                 (A') (A") (A') (A') (A") (A') (A') (A") (A') (A")
                 (A') (A') (A") (A') (A') (A") (A') (A') (A") (A')
                 (A") (A') (A') (A") (A') (A") (A') (A") (A') (A')
                 (A') (A") (A') (A") (A') (A') (A") (A') (A") (A')
                 (A") (A') (A') (A") (A') (A") (A') (A") (A') (A')
                 (A') (A") (A') (A') (A") (A') (A') (A") (A") (A')
                 (A') (A") (A') (A") (A') (A') (A") (A') (A') (A")
                 (A') (A') (A") (A') (A') (A") (A") (A') (A') (A")
                 (A') (A") (A') (A') (A') (A') (A')
 The electronic state of the initial guess is 1-A'.
 Leave Link  401 at Wed May  4 19:06:07 2022, MaxMem=   754974720 cpu:               2.2 elap:               1.1
 (Enter /opt/cluster/programs/g16-c.01/g16/l502.exe)
 Keep R1 ints in memory in symmetry-blocked form, NReq=77616006.
 FoFCou: FMM=F IPFlag=           0 FMFlag=           0 FMFlg1=           0
         NFxFlg=           0 DoJE=F BraDBF=F KetDBF=F FulRan=T
         wScrn=  0.000000 ICntrl=       600 IOpCl=  0 I1Cent=           0 NGrid=           0
         NMat0=    1 NMatS0=  10153 NMatT0=    0 NMatD0=    1 NMtDS0=    0 NMtDT0=    0
 Petite list used in FoFCou.
 Closed shell SCF:
 Using DIIS extrapolation, IDIIS=  1040.
 NGot=   754974720 LenX=   728846748 LenY=   728817746
 Requested convergence on RMS density matrix=1.00D-08 within 200 cycles.
 Requested convergence on MAX density matrix=1.00D-06.
 Requested convergence on             energy=1.00D-06.
 No special actions if energy rises.

 Cycle   1  Pass 1  IDiag  1:
 E= -489.937215184051    
 DIIS: error= 4.84D-05 at cycle   1 NSaved=   1.
 NSaved= 1 IEnMin= 1 EnMin= -489.937215184051     IErMin= 1 ErrMin= 4.84D-05
 ErrMax= 4.84D-05  0.00D+00 EMaxC= 1.00D-01 BMatC= 2.34D-07 BMatP= 2.34D-07
 IDIUse=1 WtCom= 1.00D+00 WtEn= 0.00D+00
 Coeff-Com:  0.100D+01
 Coeff:      0.100D+01
 Gap=     0.311 Goal=   None    Shift=    0.000
 RMSDP=4.76D-06 MaxDP=1.13D-04              OVMax= 1.68D-04

 Cycle   2  Pass 1  IDiag  1:
 E= -489.937215485343     Delta-E=       -0.000000301291 Rises=F Damp=F
 DIIS: error= 2.54D-05 at cycle   2 NSaved=   2.
 NSaved= 2 IEnMin= 2 EnMin= -489.937215485343     IErMin= 2 ErrMin= 2.54D-05
 ErrMax= 2.54D-05  0.00D+00 EMaxC= 1.00D-01 BMatC= 3.42D-08 BMatP= 2.34D-07
 IDIUse=1 WtCom= 1.00D+00 WtEn= 0.00D+00
 Coeff-Com:  0.119D+00 0.881D+00
 Coeff:      0.119D+00 0.881D+00
 Gap=     0.311 Goal=   None    Shift=    0.000
 RMSDP=1.58D-06 MaxDP=4.16D-05 DE=-3.01D-07 OVMax= 8.85D-05

 Cycle   3  Pass 1  IDiag  1:
 E= -489.937215525298     Delta-E=       -0.000000039955 Rises=F Damp=F
 DIIS: error= 1.54D-05 at cycle   3 NSaved=   3.
 NSaved= 3 IEnMin= 3 EnMin= -489.937215525298     IErMin= 3 ErrMin= 1.54D-05
 ErrMax= 1.54D-05  0.00D+00 EMaxC= 1.00D-01 BMatC= 1.16D-08 BMatP= 3.42D-08
 IDIUse=1 WtCom= 1.00D+00 WtEn= 0.00D+00
 Coeff-Com: -0.876D-01 0.312D+00 0.775D+00
 Coeff:     -0.876D-01 0.312D+00 0.775D+00
 Gap=     0.311 Goal=   None    Shift=    0.000
 RMSDP=5.58D-07 MaxDP=1.25D-05 DE=-4.00D-08 OVMax= 4.31D-05

 Cycle   4  Pass 1  IDiag  1:
 E= -489.937215539837     Delta-E=       -0.000000014539 Rises=F Damp=F
 DIIS: error= 4.59D-06 at cycle   4 NSaved=   4.
 NSaved= 4 IEnMin= 4 EnMin= -489.937215539837     IErMin= 4 ErrMin= 4.59D-06
 ErrMax= 4.59D-06  0.00D+00 EMaxC= 1.00D-01 BMatC= 9.52D-10 BMatP= 1.16D-08
 IDIUse=1 WtCom= 1.00D+00 WtEn= 0.00D+00
 Coeff-Com: -0.259D-01-0.293D-01 0.158D+00 0.897D+00
 Coeff:     -0.259D-01-0.293D-01 0.158D+00 0.897D+00
 Gap=     0.311 Goal=   None    Shift=    0.000
 RMSDP=2.87D-07 MaxDP=5.70D-06 DE=-1.45D-08 OVMax= 2.10D-05

 Cycle   5  Pass 1  IDiag  1:
 E= -489.937215541858     Delta-E=       -0.000000002022 Rises=F Damp=F
 DIIS: error= 2.31D-06 at cycle   5 NSaved=   5.
 NSaved= 5 IEnMin= 5 EnMin= -489.937215541858     IErMin= 5 ErrMin= 2.31D-06
 ErrMax= 2.31D-06  0.00D+00 EMaxC= 1.00D-01 BMatC= 1.80D-10 BMatP= 9.52D-10
 IDIUse=1 WtCom= 1.00D+00 WtEn= 0.00D+00
 Coeff-Com:  0.128D-01-0.631D-01-0.123D+00 0.147D+00 0.103D+01
 Coeff:      0.128D-01-0.631D-01-0.123D+00 0.147D+00 0.103D+01
 Gap=     0.311 Goal=   None    Shift=    0.000
 RMSDP=1.69D-07 MaxDP=5.20D-06 DE=-2.02D-09 OVMax= 1.08D-05

 Cycle   6  Pass 1  IDiag  1:
 E= -489.937215542323     Delta-E=       -0.000000000465 Rises=F Damp=F
 DIIS: error= 4.14D-07 at cycle   6 NSaved=   6.
 NSaved= 6 IEnMin= 6 EnMin= -489.937215542323     IErMin= 6 ErrMin= 4.14D-07
 ErrMax= 4.14D-07  0.00D+00 EMaxC= 1.00D-01 BMatC= 1.32D-11 BMatP= 1.80D-10
 IDIUse=1 WtCom= 1.00D+00 WtEn= 0.00D+00
 Coeff-Com:  0.244D-02 0.769D-02-0.191D-01-0.932D-01-0.553D-01 0.116D+01
 Coeff:      0.244D-02 0.769D-02-0.191D-01-0.932D-01-0.553D-01 0.116D+01
 Gap=     0.311 Goal=   None    Shift=    0.000
 RMSDP=5.33D-08 MaxDP=1.22D-06 DE=-4.65D-10 OVMax= 3.39D-06

 Cycle   7  Pass 1  IDiag  1:
 E= -489.937215542368     Delta-E=       -0.000000000045 Rises=F Damp=F
 DIIS: error= 2.20D-07 at cycle   7 NSaved=   7.
 NSaved= 7 IEnMin= 7 EnMin= -489.937215542368     IErMin= 7 ErrMin= 2.20D-07
 ErrMax= 2.20D-07  0.00D+00 EMaxC= 1.00D-01 BMatC= 1.44D-12 BMatP= 1.32D-11
 IDIUse=1 WtCom= 1.00D+00 WtEn= 0.00D+00
 Coeff-Com: -0.111D-02 0.777D-02 0.757D-02-0.171D-01-0.119D+00 0.109D+00
 Coeff-Com:  0.101D+01
 Coeff:     -0.111D-02 0.777D-02 0.757D-02-0.171D-01-0.119D+00 0.109D+00
 Coeff:      0.101D+01
 Gap=     0.311 Goal=   None    Shift=    0.000
 RMSDP=1.62D-08 MaxDP=4.85D-07 DE=-4.49D-11 OVMax= 1.10D-06

 Cycle   8  Pass 1  IDiag  1:
 E= -489.937215542370     Delta-E=       -0.000000000002 Rises=F Damp=F
 DIIS: error= 2.91D-08 at cycle   8 NSaved=   8.
 NSaved= 8 IEnMin= 8 EnMin= -489.937215542370     IErMin= 8 ErrMin= 2.91D-08
 ErrMax= 2.91D-08  0.00D+00 EMaxC= 1.00D-01 BMatC= 4.82D-14 BMatP= 1.44D-12
 IDIUse=1 WtCom= 1.00D+00 WtEn= 0.00D+00
 Coeff-Com:  0.285D-04-0.116D-02-0.135D-03 0.763D-02 0.158D-01-0.707D-01
 Coeff-Com: -0.160D+00 0.121D+01
 Coeff:      0.285D-04-0.116D-02-0.135D-03 0.763D-02 0.158D-01-0.707D-01
 Coeff:     -0.160D+00 0.121D+01
 Gap=     0.311 Goal=   None    Shift=    0.000
 RMSDP=5.23D-09 MaxDP=1.94D-07 DE=-2.39D-12 OVMax= 2.22D-07

 SCF Done:  E(RHF) =  -489.937215542     A.U. after    8 cycles
            NFock=  8  Conv=0.52D-08     -V/T= 2.0005
 KE= 4.896722114160D+02 PE=-1.310495301387D+03 EE= 2.608534558449D+02
 Leave Link  502 at Wed May  4 19:06:10 2022, MaxMem=   754974720 cpu:              14.1 elap:               3.7
 (Enter /opt/cluster/programs/g16-c.01/g16/l801.exe)
 ExpMin= 3.51D-02 ExpMax= 3.74D+05 ExpMxC= 1.18D+03 IAcc=3 IRadAn=         5 AccDes= 0.00D+00
 HarFok:  IExCor=  205 AccDes= 0.00D+00 IRadAn=         5 IDoV=-2 UseB2=F ITyADJ=14
 ICtDFT= 12500011 ScaDFX=  1.000000  1.000000  1.000000  1.000000
 Largest valence mixing into a core orbital is  5.37D-04
 Largest core mixing into a valence orbital is  1.39D-04
 Range of M.O.s used for correlation:     8   142
 NBasis=   142 NAE=    15 NBE=    15 NFC=     7 NFV=     0
 NROrb=    135 NOA=     8 NOB=     8 NVA=   127 NVB=   127

 **** Warning!!: The largest alpha MO coefficient is  0.21006454D+02

 Leave Link  801 at Wed May  4 19:06:11 2022, MaxMem=   754974720 cpu:               0.4 elap:               0.1
 (Enter /opt/cluster/programs/g16-c.01/g16/l906.exe)
 Frozen-core derivative calculation, NFC=   7 NFV=   0.
 FulOut=F Deriv=T AODrv=T NAtomX=     3
   MMem=          74  MDisk=           8 MDiskD=           8
  W3Min=      359970 MinDsk=      723803 NBas6D=         169
 NBas2D=       14809    NTT=       14365    LW2=     3500000
    MDV=   754677657 MDiskM=       22268 NBas2p=       14795
 Fully direct method using O(ONN) memory.
 IMap=   1   2   3   4   5   6   7   8   9  10  11  12  13  14  15
 JobTyp=1 Pass  1:  I=   8 to  15 NPSUse=  4 ParTrn=T ParDer=T DoDerP=T.
 Spin components of T(2) and E(2):
     alpha-alpha T2 =       0.2921838253D-01 E2=     -0.6959068516D-01
     alpha-beta  T2 =       0.1533704262D+00 E2=     -0.3956728089D+00
     beta-beta   T2 =       0.2921838253D-01 E2=     -0.6959068516D-01
 The integrals were generated   1 times.
 ANorm=    0.1100821144D+01
 E2 =    -0.5348541792D+00 EUMP2 =    -0.49047206972161D+03
 Leave Link  906 at Wed May  4 19:06:18 2022, MaxMem=   754974720 cpu:              31.2 elap:               7.8
 (Enter /opt/cluster/programs/g16-c.01/g16/l1002.exe)
 Minotr:  Closed shell wavefunction.
          Computing MP2/KS-MP2 derivatives.
          Using Z-Vector for PSCF gradient.
          Skipping F1 and S1 gradient terms here.
          IDoAtm=111
          Frozen-core window.
          Direct CPHF calculation.
          Differentiating once with respect to electric field.
                with respect to dipole field.
          Differentiating once with respect to nuclear coordinates.
          Using symmetry in CPHF.
          Requested convergence is 1.0D-10 RMS, and 1.0D-09 maximum.
          NewPWx=F KeepS1=T KeepF1=T KeepIn=T MapXYZ=F SortEE=F KeepMc=T.
 Keep R1 ints in memory in symmetry-blocked form, NReq=77616884.
 FoFCou: FMM=F IPFlag=           0 FMFlag=           0 FMFlg1=           0
         NFxFlg=           0 DoJE=F BraDBF=F KetDBF=F FulRan=T
         wScrn=  0.000000 ICntrl=       600 IOpCl=  0 I1Cent=           0 NGrid=           0
         NMat0=    1 NMatS0=  10153 NMatT0=    0 NMatD0=    1 NMtDS0=    0 NMtDT0=    0
 Petite list used in FoFCou.
          MDV=     754974720 using IRadAn=       5.
          Solving linear equations separately, MaxMat=       0.
          There are     1 degrees of freedom in the 1st order CPHF.  IDoFFX=0 NUNeed=     1.
 LinEq1:  Iter=  0 NonCon=     1 RMS=5.03D-03 Max=8.23D-02 NDo=     1
 AX will form     1 AO Fock derivatives at one time.
 LinEq1:  Iter=  1 NonCon=     1 RMS=1.73D-03 Max=2.19D-02 NDo=     1
 LinEq1:  Iter=  2 NonCon=     1 RMS=6.11D-04 Max=6.43D-03 NDo=     1
 LinEq1:  Iter=  3 NonCon=     1 RMS=3.30D-04 Max=4.86D-03 NDo=     1
 LinEq1:  Iter=  4 NonCon=     1 RMS=1.40D-04 Max=2.21D-03 NDo=     1
 LinEq1:  Iter=  5 NonCon=     1 RMS=4.43D-05 Max=4.86D-04 NDo=     1
 LinEq1:  Iter=  6 NonCon=     1 RMS=1.45D-05 Max=2.22D-04 NDo=     1
 LinEq1:  Iter=  7 NonCon=     1 RMS=3.86D-06 Max=4.92D-05 NDo=     1
 LinEq1:  Iter=  8 NonCon=     1 RMS=7.54D-07 Max=6.23D-06 NDo=     1
 LinEq1:  Iter=  9 NonCon=     1 RMS=1.96D-07 Max=2.05D-06 NDo=     1
 LinEq1:  Iter= 10 NonCon=     1 RMS=4.64D-08 Max=5.04D-07 NDo=     1
 LinEq1:  Iter= 11 NonCon=     1 RMS=1.07D-08 Max=1.16D-07 NDo=     1
 LinEq1:  Iter= 12 NonCon=     1 RMS=2.12D-09 Max=2.21D-08 NDo=     1
 LinEq1:  Iter= 13 NonCon=     1 RMS=3.05D-10 Max=2.87D-09 NDo=     1
 LinEq1:  Iter= 14 NonCon=     0 RMS=4.15D-11 Max=4.02D-10 NDo=     1
 Linear equations converged to 1.000D-10 1.000D-09 after    14 iterations.
 End of Minotr F.D. properties file   721 does not exist.
 End of Minotr F.D. properties file   722 does not exist.
 End of Minotr F.D. properties file   788 does not exist.
 Leave Link 1002 at Wed May  4 19:06:23 2022, MaxMem=   754974720 cpu:              16.0 elap:               4.5
 (Enter /opt/cluster/programs/g16-c.01/g16/l701.exe)
 ... and contract with generalized density number  2.
 Compute integral first derivatives.
 Leave Link  701 at Wed May  4 19:06:23 2022, MaxMem=   754974720 cpu:               0.7 elap:               0.2
 (Enter /opt/cluster/programs/g16-c.01/g16/l702.exe)
 L702 exits ... SP integral derivatives will be done elsewhere.
 Leave Link  702 at Wed May  4 19:06:23 2022, MaxMem=   754974720 cpu:               0.1 elap:               0.0
 (Enter /opt/cluster/programs/g16-c.01/g16/l703.exe)
 Integral derivatives from FoFJK, PRISM(SPDF).
 Compute integral first derivatives, UseDBF=F ICtDFT=           0.
 Calling FoFJK, ICntrl=  10002127 FMM=F ISym2X=1 I1Cent= 0 IOpClX= 0 NMat=1 NMatS=1 NMatT=0.
 FoFJK:  IHMeth= 1 ICntrl=10002127 DoSepK=F KAlg= 0 I1Cent=           0 FoldK=F
 IRaf=         0 NMat=       1 IRICut=       1 DoRegI=T DoRafI=F ISym2E= 1 IDoP0=0 IntGTp=1.
 FoFCou: FMM=F IPFlag=           0 FMFlag=      100000 FMFlg1=         800
         NFxFlg=           0 DoJE=F BraDBF=F KetDBF=F FulRan=T
         wScrn=  0.000000 ICntrl=  10002127 IOpCl=  0 I1Cent=           0 NGrid=           0
         NMat0=    1 NMatS0=      1 NMatT0=    0 NMatD0=    1 NMtDS0=    0 NMtDT0=    0
 Petite list used in FoFCou.
 Leave Link  703 at Wed May  4 19:06:27 2022, MaxMem=   754974720 cpu:              14.9 elap:               3.7
 (Enter /opt/cluster/programs/g16-c.01/g16/l716.exe)
 Dipole        =-1.51544205D-01-5.22377841D-01-4.52915631D-30
 ***** Axes restored to original set *****
 -------------------------------------------------------------------
 Center     Atomic                   Forces (Hartrees/Bohr)
 Number     Number              X              Y              Z
 -------------------------------------------------------------------
      1        7          -0.015961600    0.000000000    0.000094942
      2        6           0.026887932   -0.000000000   -0.003472016
      3       16          -0.010926332    0.000000000    0.003377074
 -------------------------------------------------------------------
 Cartesian Forces:  Max     0.026887932 RMS     0.011158389
 Leave Link  716 at Wed May  4 19:06:27 2022, MaxMem=   754974720 cpu:               0.2 elap:               0.1
 (Enter /opt/cluster/programs/g16-c.01/g16/l103.exe)

 GradGradGradGradGradGradGradGradGradGradGradGradGradGradGradGradGradGrad
 Berny optimization.
 Using GEDIIS/GDIIS optimizer.
 FormGI is forming the generalized inverse of G from B-inverse, IUseBI=4.
 Internal  Forces:  Max     0.036019574 RMS     0.020795995
 Search for a local minimum.
 Step number   3 out of a maximum of   20
 All quantities printed in internal units (Hartrees-Bohrs-Radians)
 RMS Force = .72769D-04 SwitMx=.10000D-02 MixMth= 2
 Mixed Optimization -- En-DIIS/RFO-DIIS
 Swapping is turned off.
 Update second derivatives using D2CorX and points    1    2    3
 DE= -6.39D-07 DEPred=-6.09D-07 R= 1.05D+00
 Trust test= 1.05D+00 RLast= 1.89D-03 DXMaxT set to 3.00D-01
 The second derivative matrix:
                          R1        R2        A1
           R1           1.14924
           R2           0.02097   0.31939
           A1           0.03323   0.02581   0.25295
 ITU=  0  1  0
     Eigenvalues ---    0.31886   1.149771000.00000
 En-DIIS/RFO-DIIS/Sim-DIIS IScMMF=       -3 using points:     3    2
 RFO step:  Lambda=-1.30996858D-06.
 NNeg= 0 NGDIIS= 2 SimSw=  2.50D-03 Rises=F DC= -6.39D-07 SmlDif=  1.00D-05
 NRisDI= 0 DoIntr=F SqrtH=F CThrHd= 10.0 CDAdj=  3.0
 RMS Error=  0.8702356610D-04 NUsed= 2 OKEnD=F EnDIS=F
 InvSVX:  RCond= 8.91D-07 Info=           0 Equed=N FErr=  1.12D-15 BErr=  5.47D-17
 DidBck=F Rises=F RFO-DIIS coefs:    1.05776   -0.05776
 Iteration  1 RMS(Cart)=  0.00005032 RMS(Int)=  0.00000000
 Iteration  2 RMS(Cart)=  0.00000000 RMS(Int)=  0.00000000
 Iteration  1 RMS(Cart)=  0.00000000 RMS(Int)=  0.00000000
 ITry= 1 IFail=0 DXMaxC= 6.75D-05 DCOld= 1.00D+10 DXMaxT= 3.00D-01 DXLimC= 3.00D+00 Rises=F
 ClnCor:  largest displacement from symmetrization is 1.79D-15 for atom     1.
 Variable       Old X    -DE/DX   Delta X   Delta X   Delta X     New X
                                 (Linear)    (Quad)   (Total)
    R1        2.25664  -0.00010   0.00001  -0.00010  -0.00009   2.25656
    R2        3.14959   0.00004   0.00011   0.00001   0.00012   3.14971
    A1        2.84489   0.03602  -0.00000   0.00000  -0.00000   2.84489
         Item               Value     Threshold  Converged?
 Maximum Force            0.000096     0.000450     YES
 RMS     Force            0.000073     0.000300     YES
 Maximum Displacement     0.000068     0.001800     YES
 RMS     Displacement     0.000050     0.001200     YES
 Predicted change in Energy=-6.279446D-09
 Optimization completed.
    -- Stationary point found.
                           ----------------------------
                           !   Optimized Parameters   !
                           ! (Angstroms and Degrees)  !
 --------------------------                            --------------------------
 ! Name  Definition              Value          Derivative Info.                !
 --------------------------------------------------------------------------------
 ! R1    R(1,2)                  1.1942         -DE/DX =   -0.0001              !
 ! R2    R(2,3)                  1.6667         -DE/DX =    0.0                 !
 ! A1    A(1,2,3)              163.0            -DE/DX =    0.036               !
 --------------------------------------------------------------------------------
 Lowest energy point so far.  Saving SCF results.
 Largest change from initial coordinates is atom    1       0.003 Angstoms.
 GradGradGradGradGradGradGradGradGradGradGradGradGradGradGradGradGradGrad

 Leave Link  103 at Wed May  4 19:06:27 2022, MaxMem=   754974720 cpu:               0.5 elap:               0.2
 (Enter /opt/cluster/programs/g16-c.01/g16/l202.exe)
                          Input orientation:                          
 ---------------------------------------------------------------------
 Center     Atomic      Atomic             Coordinates (Angstroms)
 Number     Number       Type             X           Y           Z
 ---------------------------------------------------------------------
      1          7           0       -0.000436   -0.000000   -1.823987
      2          6           0       -0.000546    0.000000   -0.629823
      3         16           0        0.486602   -0.000000    0.964086
 ---------------------------------------------------------------------
                    Distance matrix (angstroms):
                    1          2          3
     1  N    0.000000
     2  C    1.194164   0.000000
     3  S    2.830293   1.666691   0.000000
 Stoichiometry    CNS(1-)
 Framework group  CS[SG(CNS)]
 Deg. of freedom     3
 Full point group                 CS      NOp   2
 RotChk:  IX=0 Diff= 1.20D-13
 Largest Abelian subgroup         CS      NOp   2
 Largest concise Abelian subgroup C1      NOp   1
                         Standard orientation:                         
 ---------------------------------------------------------------------
 Center     Atomic      Atomic             Coordinates (Angstroms)
 Number     Number       Type             X           Y           Z
 ---------------------------------------------------------------------
      1          7           0        0.494388    1.736412   -0.000000
      2          6           0        0.000000    0.649394   -0.000000
      3         16           0       -0.216295   -1.003203    0.000000
 ---------------------------------------------------------------------
 Rotational constants (GHZ):        1352.9222563           6.0161596           5.9895255
 Leave Link  202 at Wed May  4 19:06:27 2022, MaxMem=   754974720 cpu:               0.1 elap:               0.0
 (Enter /opt/cluster/programs/g16-c.01/g16/l601.exe)
 Copying SCF densities to generalized density rwf, IOpCl= 0 IROHF=0.

 **********************************************************************

            Population analysis using the SCF Density.

 **********************************************************************

 Orbital symmetries:
       Occupied  (A') (A') (A') (A') (A') (A") (A') (A') (A') (A')
                 (A') (A") (A') (A") (A')
       Virtual   (A') (A') (A') (A") (A') (A") (A') (A") (A') (A')
                 (A') (A') (A") (A') (A') (A") (A') (A') (A") (A')
                 (A") (A') (A') (A") (A') (A') (A") (A') (A") (A')
                 (A') (A') (A") (A') (A") (A') (A") (A') (A') (A")
                 (A') (A") (A') (A') (A") (A') (A') (A") (A') (A")
                 (A') (A') (A") (A') (A') (A") (A') (A') (A") (A')
                 (A") (A') (A') (A") (A') (A") (A') (A") (A') (A')
                 (A') (A") (A') (A") (A') (A') (A") (A') (A") (A')
                 (A") (A') (A') (A") (A') (A") (A') (A") (A') (A')
                 (A') (A") (A') (A') (A") (A') (A') (A") (A") (A')
                 (A') (A") (A') (A") (A') (A') (A") (A') (A') (A")
                 (A') (A') (A") (A') (A') (A") (A") (A') (A') (A")
                 (A') (A") (A') (A') (A') (A') (A')
 The electronic state is 1-A'.
 Alpha  occ. eigenvalues --  -91.73126 -15.35976 -11.10199  -8.73332  -6.41529
 Alpha  occ. eigenvalues --   -6.41281  -6.41279  -0.99641  -0.77159  -0.41403
 Alpha  occ. eigenvalues --   -0.33354  -0.29853  -0.29830  -0.14004  -0.13843
 Alpha virt. eigenvalues --    0.17266   0.19224   0.23354   0.23710   0.23915
 Alpha virt. eigenvalues --    0.23987   0.24876   0.29964   0.30255   0.31107
 Alpha virt. eigenvalues --    0.35333   0.38506   0.40218   0.41756   0.44374
 Alpha virt. eigenvalues --    0.44530   0.45216   0.54486   0.54519   0.54664
 Alpha virt. eigenvalues --    0.55040   0.57250   0.62443   0.63772   0.64136
 Alpha virt. eigenvalues --    0.71692   0.73103   0.75269   0.77550   0.77558
 Alpha virt. eigenvalues --    0.80085   0.81853   0.82738   0.88415   0.89378
 Alpha virt. eigenvalues --    0.91779   0.94714   0.94846   1.00089   1.03111
 Alpha virt. eigenvalues --    1.03531   1.05843   1.05858   1.12663   1.14276
 Alpha virt. eigenvalues --    1.14319   1.28548   1.28697   1.29697   1.30445
 Alpha virt. eigenvalues --    1.32540   1.34238   1.35805   1.37082   1.42461
 Alpha virt. eigenvalues --    1.43216   1.44016   1.57026   1.58160   1.58501
 Alpha virt. eigenvalues --    1.70977   1.71661   1.76496   1.84524   1.86822
 Alpha virt. eigenvalues --    1.89321   1.91777   2.01971   2.02670   2.06977
 Alpha virt. eigenvalues --    2.13960   2.14897   2.18965   2.28675   2.28735
 Alpha virt. eigenvalues --    2.33087   2.35148   2.40195   2.47203   2.48115
 Alpha virt. eigenvalues --    2.52281   2.52846   2.59727   2.59733   2.60478
 Alpha virt. eigenvalues --    2.62119   2.68887   2.69697   2.73547   2.83644
 Alpha virt. eigenvalues --    3.02905   3.03421   3.21234   3.33884   3.34348
 Alpha virt. eigenvalues --    3.61353   3.66114   3.66148   3.68908   3.68926
 Alpha virt. eigenvalues --    3.81098   3.85764   3.88943   3.93512   3.94235
 Alpha virt. eigenvalues --    4.13254   4.16612   4.28492   4.69544   4.73993
 Alpha virt. eigenvalues --    4.79986   4.93612   5.20238   5.20243   5.46439
 Alpha virt. eigenvalues --    5.46667   5.67858   5.68194   5.83690   5.86869
 Alpha virt. eigenvalues --    6.21679   6.33441   6.35152   6.41892   6.74288
 Alpha virt. eigenvalues --   11.83798  16.44396
          Condensed to atoms (all electrons):
               1          2          3
     1  N    6.829828   0.699350  -0.108872
     2  C    0.699350   5.047200   0.357363
     3  S   -0.108872   0.357363  16.227289
 Mulliken charges:
               1
     1  N   -0.420307
     2  C   -0.103913
     3  S   -0.475780
 Sum of Mulliken charges =  -1.00000
 Mulliken charges with hydrogens summed into heavy atoms:
               1
     1  N   -0.420307
     2  C   -0.103913
     3  S   -0.475780
 Electronic spatial extent (au):  <R**2>=            224.8528
 Charge=             -1.0000 electrons
 Dipole moment (field-independent basis, Debye):
    X=             -0.4874    Y=             -1.3789    Z=             -0.0000  Tot=              1.4625
 Quadrupole moment (field-independent basis, Debye-Ang):
   XX=            -30.1969   YY=            -40.2367   ZZ=            -29.3142
   XY=             -3.3539   XZ=             -0.0000   YZ=             -0.0000
 Traceless Quadrupole moment (field-independent basis, Debye-Ang):
   XX=              3.0524   YY=             -6.9874   ZZ=              3.9351
   XY=             -3.3539   XZ=             -0.0000   YZ=             -0.0000
 Octapole moment (field-independent basis, Debye-Ang**2):
  XXX=              1.6664  YYY=            -19.5588  ZZZ=             -0.0000  XYY=             -4.5931
  XXY=              0.9234  XXZ=             -0.0000  XZZ=              0.6153  YZZ=              1.9550
  YYZ=             -0.0000  XYZ=             -0.0000
 Hexadecapole moment (field-independent basis, Debye-Ang**3):
 XXXX=            -61.5562 YYYY=           -306.3518 ZZZZ=            -45.9892 XXXY=            -30.6595
 XXXZ=             -0.0000 YYYX=            -35.8476 YYYZ=             -0.0000 ZZZX=             -0.0000
 ZZZY=              0.0000 XXYY=            -61.4487 XXZZ=            -17.9032 YYZZ=            -56.8934
 XXYZ=             -0.0000 YYXZ=             -0.0000 ZZXY=            -10.0364
 N-N= 7.003241858405D+01 E-N=-1.310495301806D+03  KE= 4.896722114160D+02
 Symmetry A'   KE= 4.486733770278D+02
 Symmetry A"   KE= 4.099883438814D+01
 No NMR shielding tensors so no spin-rotation constants.
 Leave Link  601 at Wed May  4 19:06:27 2022, MaxMem=   754974720 cpu:               0.6 elap:               0.2
 (Enter /opt/cluster/programs/g16-c.01/g16/l9999.exe)
 Unable to Open any file for archive entry.
 1\1\GINC-NODE41\FOpt\RMP2-FC\Aug-CC-pVTZ\C1N1S1(1-)\TOEPFER\04-May-202
 2\0\\#P MP2/aug-cc-pVTZ scf(maxcycle=200) opt geom(AddGIC)\\Gaussian i
 nput\\-1,1\N,-0.0004359581,0.,-1.8239867065\C,-0.0005455352,0.,-0.6298
 230341\S,0.486601539,0.,0.9640863385\\Version=ES64L-G16RevC.01\State=1
 -A'\HF=-489.9372155\MP2=-490.4720697\RMSD=5.226e-09\RMSF=1.116e-02\Dip
 ole=0.07827,0.,0.5382546\PG=CS [SG(C1N1S1)]\\@
 The archive entry for this job was punched.


 I CLAIM NOT TO HAVE CONTROLLED EVENTS,
 BUT CONFESS PLAINLY THAT EVENTS HAVE CONTROLLED ME.

                                         A. LINCOLN
 Job cpu time:       0 days  0 hours  4 minutes  5.0 seconds.
 Elapsed time:       0 days  0 hours  1 minutes  5.5 seconds.
 File lengths (MBytes):  RWF=     15 Int=      0 D2E=      0 Chk=      3 Scr=      1
 Normal termination of Gaussian 16 at Wed May  4 19:06:28 2022.
