 Entering Gaussian System, Link 0=/opt/cluster/programs/g16-c.01/g16/g16
 Input=/scratch/toepfer/jobs/tmp.5739909/gaussian_1_scn.com
 Output=/scratch/toepfer/jobs/tmp.5739909/gaussian_1_scn.out
 Initial command:
 /opt/cluster/programs/g16-c.01/g16/l1.exe "/scratch/toepfer/jobs/tmp.5739909/Gau-144552.inp" -scrdir="/scratch/toepfer/jobs/tmp.5739909/"
 Entering Link 1 = /opt/cluster/programs/g16-c.01/g16/l1.exe PID=    144556.
  
 Copyright (c) 1988-2019, Gaussian, Inc.  All Rights Reserved.
  
 This is part of the Gaussian(R) 16 program.  It is based on
 the Gaussian(R) 09 system (copyright 2009, Gaussian, Inc.),
 the Gaussian(R) 03 system (copyright 2003, Gaussian, Inc.),
 the Gaussian(R) 98 system (copyright 1998, Gaussian, Inc.),
 the Gaussian(R) 94 system (copyright 1995, Gaussian, Inc.),
 the Gaussian 92(TM) system (copyright 1992, Gaussian, Inc.),
 the Gaussian 90(TM) system (copyright 1990, Gaussian, Inc.),
 the Gaussian 88(TM) system (copyright 1988, Gaussian, Inc.),
 the Gaussian 86(TM) system (copyright 1986, Carnegie Mellon
 University), and the Gaussian 82(TM) system (copyright 1983,
 Carnegie Mellon University). Gaussian is a federally registered
 trademark of Gaussian, Inc.
  
 This software contains proprietary and confidential information,
 including trade secrets, belonging to Gaussian, Inc.
  
 This software is provided under written license and may be
 used, copied, transmitted, or stored only in accord with that
 written license.
  
 The following legend is applicable only to US Government
 contracts under FAR:
  
                    RESTRICTED RIGHTS LEGEND
  
 Use, reproduction and disclosure by the US Government is
 subject to restrictions as set forth in subparagraphs (a)
 and (c) of the Commercial Computer Software - Restricted
 Rights clause in FAR 52.227-19.
  
 Gaussian, Inc.
 340 Quinnipiac St., Bldg. 40, Wallingford CT 06492
  
  
 ---------------------------------------------------------------
 Warning -- This program may not be used in any manner that
 competes with the business of Gaussian, Inc. or will provide
 assistance to any competitor of Gaussian, Inc.  The licensee
 of this program is prohibited from giving any competitor of
 Gaussian, Inc. access to this program.  By using this program,
 the user acknowledges that Gaussian, Inc. is engaged in the
 business of creating and licensing software in the field of
 computational chemistry and represents and warrants to the
 licensee that it is not a competitor of Gaussian, Inc. and that
 it will not use this program in any manner prohibited above.
 ---------------------------------------------------------------
  

 Cite this work as:
 Gaussian 16, Revision C.01,
 M. J. Frisch, G. W. Trucks, H. B. Schlegel, G. E. Scuseria, 
 M. A. Robb, J. R. Cheeseman, G. Scalmani, V. Barone, 
 G. A. Petersson, H. Nakatsuji, X. Li, M. Caricato, A. V. Marenich, 
 J. Bloino, B. G. Janesko, R. Gomperts, B. Mennucci, H. P. Hratchian, 
 J. V. Ortiz, A. F. Izmaylov, J. L. Sonnenberg, D. Williams-Young, 
 F. Ding, F. Lipparini, F. Egidi, J. Goings, B. Peng, A. Petrone, 
 T. Henderson, D. Ranasinghe, V. G. Zakrzewski, J. Gao, N. Rega, 
 G. Zheng, W. Liang, M. Hada, M. Ehara, K. Toyota, R. Fukuda, 
 J. Hasegawa, M. Ishida, T. Nakajima, Y. Honda, O. Kitao, H. Nakai, 
 T. Vreven, K. Throssell, J. A. Montgomery, Jr., J. E. Peralta, 
 F. Ogliaro, M. J. Bearpark, J. J. Heyd, E. N. Brothers, K. N. Kudin, 
 V. N. Staroverov, T. A. Keith, R. Kobayashi, J. Normand, 
 K. Raghavachari, A. P. Rendell, J. C. Burant, S. S. Iyengar, 
 J. Tomasi, M. Cossi, J. M. Millam, M. Klene, C. Adamo, R. Cammi, 
 J. W. Ochterski, R. L. Martin, K. Morokuma, O. Farkas, 
 J. B. Foresman, and D. J. Fox, Gaussian, Inc., Wallingford CT, 2019.
 
 ******************************************
 Gaussian 16:  ES64L-G16RevC.01  3-Jul-2019
                 4-May-2022 
 ******************************************
 %nproc=4
 Will use up to    4 processors via shared memory.
 %mem=5760MB
 %chk=gaussian_1_scn.chk
 -----------------------------------------------------
 #P MP2/aug-cc-pVTZ scf(maxcycle=200) opt geom(AddGIC)
 -----------------------------------------------------
 1/18=20,19=15,38=1,145=903/1,3;
 2/9=110,12=2,17=6,18=5,40=1/2;
 3/5=16,6=1,7=10,11=9,25=1,30=1,71=1/1,2,3;
 4//1;
 5/5=2,7=200,38=5/2;
 8/6=4,10=1/1;
 9/15=2,16=-3/6;
 10/5=1/2;
 6/7=2,8=2,9=2,10=2/1;
 7/12=2/1,2,3,16;
 1/18=20,19=15,145=903/3(2);
 2/9=110/2;
 99//99;
 2/9=110/2;
 3/5=16,6=1,7=10,11=9,25=1,30=1,71=1/1,2,3;
 4/5=5,16=3,69=1/1;
 5/5=2,7=200,38=5/2;
 8/6=4,10=1/1;
 9/15=2,16=-3/6;
 10/5=1/2;
 7/12=2/1,2,3,16;
 1/18=20,19=15,145=903/3(-8);
 2/9=110/2;
 6/7=2,8=2,9=2,10=2/1;
 99/9=10/99;
 Leave Link    1 at Wed May  4 19:03:36 2022, MaxMem=   754974720 cpu:               0.1 elap:               0.0
 (Enter /opt/cluster/programs/g16-c.01/g16/l101.exe)
 --------------
 Gaussian input
 --------------
 Symbolic Z-matrix:
 Charge = -1 Multiplicity = 1
 N                     0.        0.       -1.82094 
 C                     0.        0.       -0.62859 
 S                     0.14476   0.        1.02606 
 
 Initializing the GIC definitions file.
 Number of initial coordinates =     4
 Number of input entries/lines =     1
 Number of additional coordinates =     1
 Number of removed coordinates =     0
 Number of frozen coordinates =     1
 Number of final active and frozen coordinates =     5
 ITRead=  0  0  0
 MicOpt= -1 -1 -1
 NAtoms=      3 NQM=        3 NQMF=       0 NMMI=      0 NMMIF=      0
                NMic=       0 NMicF=      0.
                    Isotopes and Nuclear Properties:
 (Nuclear quadrupole moments (NQMom) in fm**2, nuclear magnetic moments (NMagM)
  in nuclear magnetons)

  Atom         1           2           3
 IAtWgt=          14          12          32
 AtmWgt=  14.0030740  12.0000000  31.9720718
 NucSpn=           2           0           0
 AtZEff=  -0.0000000  -0.0000000  -0.0000000
 NQMom=    2.0440000   0.0000000   0.0000000
 NMagM=    0.4037610   0.0000000   0.0000000
 AtZNuc=   7.0000000   6.0000000  16.0000000
 Leave Link  101 at Wed May  4 19:03:36 2022, MaxMem=   754974720 cpu:               2.3 elap:               0.8
 (Enter /opt/cluster/programs/g16-c.01/g16/l103.exe)

 GradGradGradGradGradGradGradGradGradGradGradGradGradGradGradGradGradGrad
 Berny optimization.
 Initialization pass.
                           ----------------------------
                           !    Initial Parameters    !
                           ! (Angstroms and Degrees)  !
 --------------------------                            --------------------------
 ! Name  Definition              Value          Derivative Info.                !
 --------------------------------------------------------------------------------
 ! R1    R(1,2)                  1.1924         estimate D2E/DX2                !
 ! R2    R(2,3)                  1.661          estimate D2E/DX2                !
 ! A1    L(1,2,3,-2,-1)        175.0            estimate D2E/DX2                !
 ! A2    L(1,2,3,-1,-2)        180.0            estimate D2E/DX2                !
 ! A3    A(1,2,3)              175.0            Frozen                          !
 --------------------------------------------------------------------------------
 Trust Radius=3.00D-01 FncErr=1.00D-07 GrdErr=1.00D-07 EigMax=2.50D+02 EigMin=1.00D-04
 Number of steps in this run=     20 maximum allowed number of steps=    100.
 GradGradGradGradGradGradGradGradGradGradGradGradGradGradGradGradGradGrad

 Leave Link  103 at Wed May  4 19:03:37 2022, MaxMem=   754974720 cpu:               0.1 elap:               0.0
 (Enter /opt/cluster/programs/g16-c.01/g16/l202.exe)
                          Input orientation:                          
 ---------------------------------------------------------------------
 Center     Atomic      Atomic             Coordinates (Angstroms)
 Number     Number       Type             X           Y           Z
 ---------------------------------------------------------------------
      1          7           0        0.000000    0.000000   -1.820943
      2          6           0        0.000000    0.000000   -0.628586
      3         16           0        0.144763    0.000000    1.026062
 ---------------------------------------------------------------------
                    Distance matrix (angstroms):
                    1          2          3
     1  N    0.000000
     2  C    1.192357   0.000000
     3  S    2.850683   1.660968   0.000000
 Stoichiometry    CNS(1-)
 Framework group  CS[SG(CNS)]
 Deg. of freedom     3
 Full point group                 CS      NOp   2
 Largest Abelian subgroup         CS      NOp   2
 Largest concise Abelian subgroup C1      NOp   1
                         Standard orientation:                         
 ---------------------------------------------------------------------
 Center     Atomic      Atomic             Coordinates (Angstroms)
 Number     Number       Type             X           Y           Z
 ---------------------------------------------------------------------
      1          7           0        0.151120    1.812922    0.000000
      2          6           0        0.000000    0.630180    0.000000
      3         16           0       -0.066115   -1.029471    0.000000
 ---------------------------------------------------------------------
 Rotational constants (GHZ):       15577.2043970           5.9386012           5.9363380
 Leave Link  202 at Wed May  4 19:03:37 2022, MaxMem=   754974720 cpu:               0.0 elap:               0.0
 (Enter /opt/cluster/programs/g16-c.01/g16/l301.exe)
 Standard basis: Aug-CC-pVTZ (5D, 7F)
 Ernie: Thresh=  0.10000D-02 Tol=  0.10000D-05 Strict=F.
 Ernie:  19 primitive shells out of 124 were deleted.
 There are   114 symmetry adapted cartesian basis functions of A'  symmetry.
 There are    55 symmetry adapted cartesian basis functions of A"  symmetry.
 There are    93 symmetry adapted basis functions of A'  symmetry.
 There are    49 symmetry adapted basis functions of A"  symmetry.
   142 basis functions,   258 primitive gaussians,   169 cartesian basis functions
    15 alpha electrons       15 beta electrons
       nuclear repulsion energy        70.0158641663 Hartrees.
 IExCor=    0 DFT=F Ex=HF Corr=None ExCW=0 ScaHFX=  1.000000
 ScaDFX=  1.000000  1.000000  1.000000  1.000000 ScalE2=  1.000000  1.000000
 IRadAn=      5 IRanWt=     -1 IRanGd=            0 ICorTp=0 IEmpDi=  4
 NAtoms=    3 NActive=    3 NUniq=    3 SFac= 1.00D+00 NAtFMM=   60 NAOKFM=F Big=F
 Integral buffers will be    131072 words long.
 Raffenetti 1 integral format.
 Two-electron integral symmetry is turned on.
 Leave Link  301 at Wed May  4 19:03:37 2022, MaxMem=   754974720 cpu:               0.2 elap:               0.1
 (Enter /opt/cluster/programs/g16-c.01/g16/l302.exe)
 NPDir=0 NMtPBC=     1 NCelOv=     1 NCel=       1 NClECP=     1 NCelD=      1
         NCelK=      1 NCelE2=     1 NClLst=     1 CellRange=     0.0.
 One-electron integrals computed using PRISM.
 One-electron integral symmetry used in STVInt
 NBasis=   142 RedAO= T EigKep=  1.02D-04  NBF=    93    49
 NBsUse=   142 1.00D-06 EigRej= -1.00D+00 NBFU=    93    49
 Leave Link  302 at Wed May  4 19:03:37 2022, MaxMem=   754974720 cpu:               0.8 elap:               0.3
 (Enter /opt/cluster/programs/g16-c.01/g16/l303.exe)
 DipDrv:  MaxL=1.
 Leave Link  303 at Wed May  4 19:03:37 2022, MaxMem=   754974720 cpu:               0.1 elap:               0.0
 (Enter /opt/cluster/programs/g16-c.01/g16/l401.exe)
 ExpMin= 3.51D-02 ExpMax= 3.74D+05 ExpMxC= 1.18D+03 IAcc=3 IRadAn=         5 AccDes= 0.00D+00
 Harris functional with IExCor=  205 and IRadAn=       5 diagonalized for initial guess.
 HarFok:  IExCor=  205 AccDes= 0.00D+00 IRadAn=         5 IDoV= 1 UseB2=F ITyADJ=14
 ICtDFT=  3500011 ScaDFX=  1.000000  1.000000  1.000000  1.000000
 FoFCou: FMM=F IPFlag=           0 FMFlag=      100000 FMFlg1=           0
         NFxFlg=           0 DoJE=T BraDBF=F KetDBF=T FulRan=T
         wScrn=  0.000000 ICntrl=       500 IOpCl=  0 I1Cent=   200000004 NGrid=           0
         NMat0=    1 NMatS0=      1 NMatT0=    0 NMatD0=    1 NMtDS0=    0 NMtDT0=    0
 Petite list used in FoFCou.
 Harris En= -489.766684114148    
 JPrj=0 DoOrth=F DoCkMO=F.
 Initial guess orbital symmetries:
       Occupied  (A') (A') (A') (A') (A') (A') (A") (A') (A') (A')
                 (A') (A") (A') (A") (A')
       Virtual   (A') (A") (A') (A') (A') (A") (A') (A') (A") (A')
                 (A') (A") (A') (A') (A") (A') (A') (A') (A") (A')
                 (A") (A') (A') (A") (A') (A') (A") (A') (A') (A")
                 (A') (A') (A") (A') (A") (A") (A') (A') (A') (A")
                 (A') (A') (A") (A') (A") (A') (A') (A") (A') (A')
                 (A") (A') (A") (A') (A") (A') (A') (A') (A") (A')
                 (A") (A') (A') (A") (A') (A") (A') (A") (A') (A')
                 (A') (A") (A') (A") (A') (A') (A") (A') (A') (A")
                 (A") (A') (A') (A") (A') (A") (A') (A') (A") (A')
                 (A') (A") (A') (A") (A') (A') (A") (A') (A") (A')
                 (A') (A") (A') (A') (A") (A') (A") (A') (A') (A")
                 (A') (A') (A') (A") (A") (A') (A") (A') (A') (A")
                 (A') (A') (A") (A') (A') (A') (A')
 The electronic state of the initial guess is 1-A'.
 Leave Link  401 at Wed May  4 19:03:37 2022, MaxMem=   754974720 cpu:               1.2 elap:               0.3
 (Enter /opt/cluster/programs/g16-c.01/g16/l502.exe)
 Keep R1 ints in memory in symmetry-blocked form, NReq=77616006.
 FoFCou: FMM=F IPFlag=           0 FMFlag=           0 FMFlg1=           0
         NFxFlg=           0 DoJE=F BraDBF=F KetDBF=F FulRan=T
         wScrn=  0.000000 ICntrl=       600 IOpCl=  0 I1Cent=           0 NGrid=           0
         NMat0=    1 NMatS0=  10153 NMatT0=    0 NMatD0=    1 NMtDS0=    0 NMtDT0=    0
 Petite list used in FoFCou.
 Closed shell SCF:
 Using DIIS extrapolation, IDIIS=  1040.
 NGot=   754974720 LenX=   728846748 LenY=   728817746
 Requested convergence on RMS density matrix=1.00D-08 within 200 cycles.
 Requested convergence on MAX density matrix=1.00D-06.
 Requested convergence on             energy=1.00D-06.
 No special actions if energy rises.

 Cycle   1  Pass 1  IDiag  1:
 E= -489.754199311044    
 DIIS: error= 4.45D-02 at cycle   1 NSaved=   1.
 NSaved= 1 IEnMin= 1 EnMin= -489.754199311044     IErMin= 1 ErrMin= 4.45D-02
 ErrMax= 4.45D-02  0.00D+00 EMaxC= 1.00D-01 BMatC= 3.50D-01 BMatP= 3.50D-01
 IDIUse=3 WtCom= 5.55D-01 WtEn= 4.45D-01
 Coeff-Com:  0.100D+01
 Coeff-En:   0.100D+01
 Coeff:      0.100D+01
 Gap=     0.603 Goal=   None    Shift=    0.000
 GapD=    0.603 DampG=2.000 DampE=0.500 DampFc=1.0000 IDamp=-1.
 RMSDP=3.36D-03 MaxDP=6.90D-02              OVMax= 2.12D-01

 Cycle   2  Pass 1  IDiag  1:
 E= -489.869893413110     Delta-E=       -0.115694102066 Rises=F Damp=F
 DIIS: error= 3.33D-02 at cycle   2 NSaved=   2.
 NSaved= 2 IEnMin= 2 EnMin= -489.869893413110     IErMin= 2 ErrMin= 3.33D-02
 ErrMax= 3.33D-02  0.00D+00 EMaxC= 1.00D-01 BMatC= 7.56D-02 BMatP= 3.50D-01
 IDIUse=3 WtCom= 6.67D-01 WtEn= 3.33D-01
 Coeff-Com:  0.258D+00 0.742D+00
 Coeff-En:   0.118D+00 0.882D+00
 Coeff:      0.212D+00 0.788D+00
 Gap=     0.386 Goal=   None    Shift=    0.000
 RMSDP=1.49D-03 MaxDP=4.24D-02 DE=-1.16D-01 OVMax= 9.45D-02

 Cycle   3  Pass 1  IDiag  1:
 E= -489.927176703623     Delta-E=       -0.057283290513 Rises=F Damp=F
 DIIS: error= 1.59D-02 at cycle   3 NSaved=   3.
 NSaved= 3 IEnMin= 3 EnMin= -489.927176703623     IErMin= 3 ErrMin= 1.59D-02
 ErrMax= 1.59D-02  0.00D+00 EMaxC= 1.00D-01 BMatC= 1.70D-02 BMatP= 7.56D-02
 IDIUse=3 WtCom= 8.41D-01 WtEn= 1.59D-01
 Coeff-Com: -0.171D-01 0.304D+00 0.714D+00
 Coeff-En:   0.000D+00 0.564D-01 0.944D+00
 Coeff:     -0.144D-01 0.264D+00 0.750D+00
 Gap=     0.321 Goal=   None    Shift=    0.000
 RMSDP=6.08D-04 MaxDP=1.46D-02 DE=-5.73D-02 OVMax= 5.09D-02

 Cycle   4  Pass 1  IDiag  1:
 E= -489.942002638900     Delta-E=       -0.014825935277 Rises=F Damp=F
 DIIS: error= 4.64D-03 at cycle   4 NSaved=   4.
 NSaved= 4 IEnMin= 4 EnMin= -489.942002638900     IErMin= 4 ErrMin= 4.64D-03
 ErrMax= 4.64D-03  0.00D+00 EMaxC= 1.00D-01 BMatC= 1.17D-03 BMatP= 1.70D-02
 IDIUse=3 WtCom= 9.54D-01 WtEn= 4.64D-02
 Coeff-Com: -0.141D-01 0.562D-01 0.281D+00 0.677D+00
 Coeff-En:   0.000D+00 0.000D+00 0.000D+00 0.100D+01
 Coeff:     -0.135D-01 0.536D-01 0.268D+00 0.692D+00
 Gap=     0.312 Goal=   None    Shift=    0.000
 RMSDP=1.44D-04 MaxDP=2.99D-03 DE=-1.48D-02 OVMax= 1.27D-02

 Cycle   5  Pass 1  IDiag  1:
 E= -489.943142882521     Delta-E=       -0.001140243622 Rises=F Damp=F
 DIIS: error= 1.08D-03 at cycle   5 NSaved=   5.
 NSaved= 5 IEnMin= 5 EnMin= -489.943142882521     IErMin= 5 ErrMin= 1.08D-03
 ErrMax= 1.08D-03  0.00D+00 EMaxC= 1.00D-01 BMatC= 6.52D-05 BMatP= 1.17D-03
 IDIUse=3 WtCom= 9.89D-01 WtEn= 1.08D-02
 Coeff-Com:  0.226D-02-0.397D-01-0.891D-01 0.609D-01 0.107D+01
 Coeff-En:   0.000D+00 0.000D+00 0.000D+00 0.000D+00 0.100D+01
 Coeff:      0.223D-02-0.393D-01-0.881D-01 0.603D-01 0.106D+01
 Gap=     0.311 Goal=   None    Shift=    0.000
 RMSDP=7.78D-05 MaxDP=1.82D-03 DE=-1.14D-03 OVMax= 4.47D-03

 Cycle   6  Pass 1  IDiag  1:
 E= -489.943282879944     Delta-E=       -0.000139997423 Rises=F Damp=F
 DIIS: error= 2.35D-04 at cycle   6 NSaved=   6.
 NSaved= 6 IEnMin= 6 EnMin= -489.943282879944     IErMin= 6 ErrMin= 2.35D-04
 ErrMax= 2.35D-04  0.00D+00 EMaxC= 1.00D-01 BMatC= 5.02D-06 BMatP= 6.52D-05
 IDIUse=3 WtCom= 9.98D-01 WtEn= 2.35D-03
 Coeff-Com:  0.976D-03-0.986D-02-0.301D-01-0.548D-01 0.888D-01 0.101D+01
 Coeff-En:   0.000D+00 0.000D+00 0.000D+00 0.000D+00 0.000D+00 0.100D+01
 Coeff:      0.973D-03-0.984D-02-0.300D-01-0.547D-01 0.886D-01 0.101D+01
 Gap=     0.313 Goal=   None    Shift=    0.000
 RMSDP=2.56D-05 MaxDP=4.94D-04 DE=-1.40D-04 OVMax= 1.70D-03

 Cycle   7  Pass 1  IDiag  1:
 E= -489.943297803740     Delta-E=       -0.000014923796 Rises=F Damp=F
 DIIS: error= 1.44D-04 at cycle   7 NSaved=   7.
 NSaved= 7 IEnMin= 7 EnMin= -489.943297803740     IErMin= 7 ErrMin= 1.44D-04
 ErrMax= 1.44D-04  0.00D+00 EMaxC= 1.00D-01 BMatC= 6.09D-07 BMatP= 5.02D-06
 IDIUse=3 WtCom= 9.99D-01 WtEn= 1.44D-03
 Coeff-Com: -0.117D-03 0.424D-02 0.108D-01-0.116D-01-0.113D+00-0.113D+00
 Coeff-Com:  0.122D+01
 Coeff-En:   0.000D+00 0.000D+00 0.000D+00 0.000D+00 0.000D+00 0.000D+00
 Coeff-En:   0.100D+01
 Coeff:     -0.117D-03 0.424D-02 0.107D-01-0.116D-01-0.113D+00-0.112D+00
 Coeff:      0.122D+01
 Gap=     0.313 Goal=   None    Shift=    0.000
 RMSDP=1.06D-05 MaxDP=2.89D-04 DE=-1.49D-05 OVMax= 7.58D-04

 Cycle   8  Pass 1  IDiag  1:
 E= -489.943299809700     Delta-E=       -0.000002005960 Rises=F Damp=F
 DIIS: error= 3.13D-05 at cycle   8 NSaved=   8.
 NSaved= 8 IEnMin= 8 EnMin= -489.943299809700     IErMin= 8 ErrMin= 3.13D-05
 ErrMax= 3.13D-05  0.00D+00 EMaxC= 1.00D-01 BMatC= 3.01D-08 BMatP= 6.09D-07
 IDIUse=1 WtCom= 1.00D+00 WtEn= 0.00D+00
 Coeff-Com: -0.764D-04-0.190D-03-0.485D-04 0.506D-02 0.241D-01-0.251D-01
 Coeff-Com: -0.335D+00 0.133D+01
 Coeff:     -0.764D-04-0.190D-03-0.485D-04 0.506D-02 0.241D-01-0.251D-01
 Coeff:     -0.335D+00 0.133D+01
 Gap=     0.313 Goal=   None    Shift=    0.000
 RMSDP=2.48D-06 MaxDP=5.93D-05 DE=-2.01D-06 OVMax= 1.64D-04

 Cycle   9  Pass 1  IDiag  1:
 E= -489.943299900736     Delta-E=       -0.000000091036 Rises=F Damp=F
 DIIS: error= 6.75D-06 at cycle   9 NSaved=   9.
 NSaved= 9 IEnMin= 9 EnMin= -489.943299900736     IErMin= 9 ErrMin= 6.75D-06
 ErrMax= 6.75D-06  0.00D+00 EMaxC= 1.00D-01 BMatC= 1.07D-09 BMatP= 3.01D-08
 IDIUse=1 WtCom= 1.00D+00 WtEn= 0.00D+00
 Coeff-Com:  0.115D-04-0.129D-03-0.327D-03-0.538D-03 0.169D-02 0.677D-02
 Coeff-Com: -0.543D-02-0.158D+00 0.116D+01
 Coeff:      0.115D-04-0.129D-03-0.327D-03-0.538D-03 0.169D-02 0.677D-02
 Coeff:     -0.543D-02-0.158D+00 0.116D+01
 Gap=     0.313 Goal=   None    Shift=    0.000
 RMSDP=4.75D-07 MaxDP=1.18D-05 DE=-9.10D-08 OVMax= 2.73D-05

 Cycle  10  Pass 1  IDiag  1:
 E= -489.943299903605     Delta-E=       -0.000000002869 Rises=F Damp=F
 DIIS: error= 1.45D-06 at cycle  10 NSaved=  10.
 NSaved=10 IEnMin=10 EnMin= -489.943299903605     IErMin=10 ErrMin= 1.45D-06
 ErrMax= 1.45D-06  0.00D+00 EMaxC= 1.00D-01 BMatC= 8.57D-11 BMatP= 1.07D-09
 IDIUse=1 WtCom= 1.00D+00 WtEn= 0.00D+00
 Coeff-Com:  0.431D-05 0.245D-04 0.624D-04-0.341D-03-0.206D-02 0.939D-03
 Coeff-Com:  0.249D-01-0.730D-01-0.150D+00 0.120D+01
 Coeff:      0.431D-05 0.245D-04 0.624D-04-0.341D-03-0.206D-02 0.939D-03
 Coeff:      0.249D-01-0.730D-01-0.150D+00 0.120D+01
 Gap=     0.313 Goal=   None    Shift=    0.000
 RMSDP=1.81D-07 MaxDP=4.88D-06 DE=-2.87D-09 OVMax= 9.95D-06

 Cycle  11  Pass 1  IDiag  1:
 E= -489.943299903903     Delta-E=       -0.000000000298 Rises=F Damp=F
 DIIS: error= 5.73D-07 at cycle  11 NSaved=  11.
 NSaved=11 IEnMin=11 EnMin= -489.943299903903     IErMin=11 ErrMin= 5.73D-07
 ErrMax= 5.73D-07  0.00D+00 EMaxC= 1.00D-01 BMatC= 9.47D-12 BMatP= 8.57D-11
 IDIUse=1 WtCom= 1.00D+00 WtEn= 0.00D+00
 Coeff-Com: -0.265D-05 0.110D-05 0.517D-05 0.172D-03 0.636D-03-0.567D-03
 Coeff-Com: -0.963D-02 0.396D-01-0.261D-01-0.431D+00 0.143D+01
 Coeff:     -0.265D-05 0.110D-05 0.517D-05 0.172D-03 0.636D-03-0.567D-03
 Coeff:     -0.963D-02 0.396D-01-0.261D-01-0.431D+00 0.143D+01
 Gap=     0.313 Goal=   None    Shift=    0.000
 RMSDP=6.85D-08 MaxDP=1.87D-06 DE=-2.98D-10 OVMax= 4.38D-06

 Cycle  12  Pass 1  IDiag  1:
 E= -489.943299903961     Delta-E=       -0.000000000057 Rises=F Damp=F
 DIIS: error= 2.85D-07 at cycle  12 NSaved=  12.
 NSaved=12 IEnMin=12 EnMin= -489.943299903961     IErMin=12 ErrMin= 2.85D-07
 ErrMax= 2.85D-07  0.00D+00 EMaxC= 1.00D-01 BMatC= 2.24D-12 BMatP= 9.47D-12
 IDIUse=1 WtCom= 1.00D+00 WtEn= 0.00D+00
 Coeff-Com:  0.198D-06-0.402D-05-0.126D-04-0.188D-05 0.126D-03-0.103D-04
 Coeff-Com: -0.752D-03-0.124D-02 0.308D-01-0.381D-01-0.519D+00 0.153D+01
 Coeff:      0.198D-06-0.402D-05-0.126D-04-0.188D-05 0.126D-03-0.103D-04
 Coeff:     -0.752D-03-0.124D-02 0.308D-01-0.381D-01-0.519D+00 0.153D+01
 Gap=     0.313 Goal=   None    Shift=    0.000
 RMSDP=3.09D-08 MaxDP=6.89D-07 DE=-5.74D-11 OVMax= 2.49D-06

 Cycle  13  Pass 1  IDiag  1:
 E= -489.943299903977     Delta-E=       -0.000000000016 Rises=F Damp=F
 DIIS: error= 1.21D-07 at cycle  13 NSaved=  13.
 NSaved=13 IEnMin=13 EnMin= -489.943299903977     IErMin=13 ErrMin= 1.21D-07
 ErrMax= 1.21D-07  0.00D+00 EMaxC= 1.00D-01 BMatC= 4.02D-13 BMatP= 2.24D-12
 IDIUse=1 WtCom= 1.00D+00 WtEn= 0.00D+00
 Coeff-Com:  0.702D-06 0.118D-06-0.211D-06-0.453D-04-0.190D-03 0.115D-03
 Coeff-Com:  0.281D-02-0.105D-01 0.218D-02 0.119D+00-0.294D+00-0.209D+00
 Coeff-Com:  0.139D+01
 Coeff:      0.702D-06 0.118D-06-0.211D-06-0.453D-04-0.190D-03 0.115D-03
 Coeff:      0.281D-02-0.105D-01 0.218D-02 0.119D+00-0.294D+00-0.209D+00
 Coeff:      0.139D+01
 Gap=     0.313 Goal=   None    Shift=    0.000
 RMSDP=1.50D-08 MaxDP=3.42D-07 DE=-1.65D-11 OVMax= 1.26D-06

 Cycle  14  Pass 1  IDiag  1:
 E= -489.943299903980     Delta-E=       -0.000000000003 Rises=F Damp=F
 DIIS: error= 2.66D-08 at cycle  14 NSaved=  14.
 NSaved=14 IEnMin=14 EnMin= -489.943299903980     IErMin=14 ErrMin= 2.66D-08
 ErrMax= 2.66D-08  0.00D+00 EMaxC= 1.00D-01 BMatC= 2.93D-14 BMatP= 4.02D-13
 IDIUse=1 WtCom= 1.00D+00 WtEn= 0.00D+00
 Coeff-Com: -0.193D-06 0.211D-06 0.980D-06 0.123D-04 0.394D-04-0.238D-04
 Coeff-Com: -0.670D-03 0.273D-02-0.242D-02-0.309D-01 0.132D+00-0.880D-01
 Coeff-Com: -0.428D+00 0.142D+01
 Coeff:     -0.193D-06 0.211D-06 0.980D-06 0.123D-04 0.394D-04-0.238D-04
 Coeff:     -0.670D-03 0.273D-02-0.242D-02-0.309D-01 0.132D+00-0.880D-01
 Coeff:     -0.428D+00 0.142D+01
 Gap=     0.313 Goal=   None    Shift=    0.000
 RMSDP=4.55D-09 MaxDP=1.00D-07 DE=-2.96D-12 OVMax= 3.41D-07

 SCF Done:  E(RHF) =  -489.943299904     A.U. after   14 cycles
            NFock= 14  Conv=0.46D-08     -V/T= 2.0005
 KE= 4.896804889987D+02 PE=-1.310463738150D+03 EE= 2.608240850813D+02
 Leave Link  502 at Wed May  4 19:03:41 2022, MaxMem=   754974720 cpu:              12.5 elap:               3.4
 (Enter /opt/cluster/programs/g16-c.01/g16/l801.exe)
 ExpMin= 3.51D-02 ExpMax= 3.74D+05 ExpMxC= 1.18D+03 IAcc=3 IRadAn=         5 AccDes= 0.00D+00
 HarFok:  IExCor=  205 AccDes= 0.00D+00 IRadAn=         5 IDoV=-2 UseB2=F ITyADJ=14
 ICtDFT= 12500011 ScaDFX=  1.000000  1.000000  1.000000  1.000000
 DSYEVD-2 returned Info=          93 IAlg= 4 N=    46 NDim=    46 NE2=    15098045 trying  DSYEV.
 Largest valence mixing into a core orbital is  5.36D-04
 Largest core mixing into a valence orbital is  1.38D-04
 Range of M.O.s used for correlation:     8   142
 NBasis=   142 NAE=    15 NBE=    15 NFC=     7 NFV=     0
 NROrb=    135 NOA=     8 NOB=     8 NVA=   127 NVB=   127

 **** Warning!!: The largest alpha MO coefficient is  0.22527300D+02

 Leave Link  801 at Wed May  4 19:03:41 2022, MaxMem=   754974720 cpu:               0.4 elap:               0.1
 (Enter /opt/cluster/programs/g16-c.01/g16/l906.exe)
 Frozen-core derivative calculation, NFC=   7 NFV=   0.
 FulOut=F Deriv=T AODrv=T NAtomX=     3
   MMem=          74  MDisk=           8 MDiskD=           8
  W3Min=      359970 MinDsk=      723803 NBas6D=         169
 NBas2D=       14809    NTT=       14365    LW2=     3500000
    MDV=   754677671 MDiskM=       22268 NBas2p=       14795
 Fully direct method using O(ONN) memory.
 IMap=   1   2   3   4   5   6   7   8   9  10  11  12  13  14  15
 JobTyp=1 Pass  1:  I=   8 to  15 NPSUse=  4 ParTrn=T ParDer=T DoDerP=T.
 Spin components of T(2) and E(2):
     alpha-alpha T2 =       0.2907503267D-01 E2=     -0.6948516249D-01
     alpha-beta  T2 =       0.1521640588D+00 E2=     -0.3946598873D+00
     beta-beta   T2 =       0.2907503267D-01 E2=     -0.6948516249D-01
 The integrals were generated   1 times.
 ANorm=    0.1100142774D+01
 E2 =    -0.5336302122D+00 EUMP2 =    -0.49047693011620D+03
 Leave Link  906 at Wed May  4 19:03:50 2022, MaxMem=   754974720 cpu:              34.6 elap:               8.7
 (Enter /opt/cluster/programs/g16-c.01/g16/l1002.exe)
 Minotr:  Closed shell wavefunction.
          Computing MP2/KS-MP2 derivatives.
          Using Z-Vector for PSCF gradient.
          Skipping F1 and S1 gradient terms here.
          IDoAtm=111
          Frozen-core window.
          Direct CPHF calculation.
          Differentiating once with respect to electric field.
                with respect to dipole field.
          Differentiating once with respect to nuclear coordinates.
          Using symmetry in CPHF.
          Requested convergence is 1.0D-10 RMS, and 1.0D-09 maximum.
          NewPWx=F KeepS1=T KeepF1=T KeepIn=T MapXYZ=F SortEE=F KeepMc=T.
 Keep R1 ints in memory in symmetry-blocked form, NReq=77616884.
 FoFCou: FMM=F IPFlag=           0 FMFlag=           0 FMFlg1=           0
         NFxFlg=           0 DoJE=F BraDBF=F KetDBF=F FulRan=T
         wScrn=  0.000000 ICntrl=       600 IOpCl=  0 I1Cent=           0 NGrid=           0
         NMat0=    1 NMatS0=  10153 NMatT0=    0 NMatD0=    1 NMtDS0=    0 NMtDT0=    0
 Petite list used in FoFCou.
          MDV=     754974720 using IRadAn=       5.
          Solving linear equations separately, MaxMat=       0.
          There are     1 degrees of freedom in the 1st order CPHF.  IDoFFX=0 NUNeed=     1.
 LinEq1:  Iter=  0 NonCon=     1 RMS=5.00D-03 Max=7.97D-02 NDo=     1
 AX will form     1 AO Fock derivatives at one time.
 LinEq1:  Iter=  1 NonCon=     1 RMS=1.72D-03 Max=2.45D-02 NDo=     1
 LinEq1:  Iter=  2 NonCon=     1 RMS=6.02D-04 Max=6.65D-03 NDo=     1
 LinEq1:  Iter=  3 NonCon=     1 RMS=3.21D-04 Max=5.49D-03 NDo=     1
 LinEq1:  Iter=  4 NonCon=     1 RMS=1.29D-04 Max=1.76D-03 NDo=     1
 LinEq1:  Iter=  5 NonCon=     1 RMS=3.41D-05 Max=4.56D-04 NDo=     1
 LinEq1:  Iter=  6 NonCon=     1 RMS=7.43D-06 Max=6.26D-05 NDo=     1
 LinEq1:  Iter=  7 NonCon=     1 RMS=1.32D-06 Max=1.39D-05 NDo=     1
 LinEq1:  Iter=  8 NonCon=     1 RMS=3.65D-07 Max=4.86D-06 NDo=     1
 LinEq1:  Iter=  9 NonCon=     1 RMS=1.07D-07 Max=1.43D-06 NDo=     1
 LinEq1:  Iter= 10 NonCon=     1 RMS=2.25D-08 Max=2.53D-07 NDo=     1
 LinEq1:  Iter= 11 NonCon=     1 RMS=5.22D-09 Max=6.08D-08 NDo=     1
 LinEq1:  Iter= 12 NonCon=     1 RMS=1.38D-09 Max=1.94D-08 NDo=     1
 LinEq1:  Iter= 13 NonCon=     1 RMS=2.39D-10 Max=2.35D-09 NDo=     1
 LinEq1:  Iter= 14 NonCon=     0 RMS=2.76D-11 Max=2.41D-10 NDo=     1
 Linear equations converged to 1.000D-10 1.000D-09 after    14 iterations.
 End of Minotr F.D. properties file   721 does not exist.
 End of Minotr F.D. properties file   722 does not exist.
 End of Minotr F.D. properties file   788 does not exist.
 Leave Link 1002 at Wed May  4 19:03:54 2022, MaxMem=   754974720 cpu:              14.3 elap:               4.0
 (Enter /opt/cluster/programs/g16-c.01/g16/l601.exe)
 Copying SCF densities to generalized density rwf, IOpCl= 0 IROHF=0.

 **********************************************************************

            Population analysis using the SCF Density.

 **********************************************************************

 Orbital symmetries:
       Occupied  (A') (A') (A') (A') (A') (A") (A') (A') (A') (A')
                 (A') (A") (A') (A") (A')
       Virtual   (A') (A') (A') (A") (A') (A") (A') (A") (A') (A')
                 (A') (A') (A") (A') (A') (A") (A') (A') (A") (A')
                 (A") (A') (A') (A") (A') (A') (A") (A') (A") (A')
                 (A') (A') (A") (A') (A") (A') (A") (A') (A') (A")
                 (A') (A") (A') (A') (A") (A') (A') (A") (A') (A")
                 (A') (A') (A") (A') (A") (A') (A') (A') (A") (A')
                 (A") (A') (A') (A") (A') (A") (A') (A") (A') (A')
                 (A') (A") (A') (A") (A') (A') (A") (A') (A") (A')
                 (A') (A") (A') (A") (A') (A") (A') (A') (A") (A')
                 (A") (A') (A') (A") (A') (A') (A") (A') (A") (A')
                 (A') (A") (A') (A") (A') (A') (A") (A') (A') (A")
                 (A') (A') (A") (A') (A') (A") (A") (A') (A') (A")
                 (A') (A') (A") (A') (A') (A') (A')
 The electronic state is 1-A'.
 Alpha  occ. eigenvalues --  -91.73225 -15.35702 -11.10167  -8.73448  -6.41648
 Alpha  occ. eigenvalues --   -6.41401  -6.41400  -0.99540  -0.77586  -0.41359
 Alpha  occ. eigenvalues --   -0.33390  -0.29867  -0.29866  -0.14084  -0.14070
 Alpha virt. eigenvalues --    0.17182   0.19250   0.23703   0.23722   0.23959
 Alpha virt. eigenvalues --    0.23977   0.24965   0.30349   0.30375   0.31069
 Alpha virt. eigenvalues --    0.35795   0.39918   0.40480   0.40978   0.44002
 Alpha virt. eigenvalues --    0.44004   0.44907   0.54734   0.54736   0.54831
 Alpha virt. eigenvalues --    0.54878   0.56239   0.62557   0.63500   0.63546
 Alpha virt. eigenvalues --    0.73754   0.74312   0.74831   0.78044   0.78044
 Alpha virt. eigenvalues --    0.80816   0.83073   0.83181   0.88019   0.88068
 Alpha virt. eigenvalues --    0.89870   0.94299   0.94300   0.99599   1.04164
 Alpha virt. eigenvalues --    1.04206   1.05313   1.05313   1.11849   1.13764
 Alpha virt. eigenvalues --    1.13764   1.28841   1.28845   1.32412   1.33952
 Alpha virt. eigenvalues --    1.33953   1.35699   1.35769   1.37171   1.38417
 Alpha virt. eigenvalues --    1.38850   1.42595   1.55457   1.60612   1.60616
 Alpha virt. eigenvalues --    1.69981   1.70056   1.80177   1.87106   1.87502
 Alpha virt. eigenvalues --    1.87717   1.88253   2.00608   2.00619   2.06027
 Alpha virt. eigenvalues --    2.14195   2.14287   2.18309   2.28631   2.28632
 Alpha virt. eigenvalues --    2.39226   2.41419   2.42519   2.45774   2.46417
 Alpha virt. eigenvalues --    2.49969   2.50341   2.59549   2.59549   2.61680
 Alpha virt. eigenvalues --    2.62111   2.68717   2.73583   2.73587   2.87234
 Alpha virt. eigenvalues --    3.04893   3.04969   3.19078   3.38137   3.38192
 Alpha virt. eigenvalues --    3.61562   3.63964   3.63970   3.67397   3.67397
 Alpha virt. eigenvalues --    3.81891   3.85937   3.86051   3.89198   3.89302
 Alpha virt. eigenvalues --    4.18969   4.19546   4.30536   4.69580   4.76223
 Alpha virt. eigenvalues --    4.76773   4.94177   5.20165   5.20165   5.44953
 Alpha virt. eigenvalues --    5.44954   5.70206   5.70211   5.86955   5.87283
 Alpha virt. eigenvalues --    6.31591   6.37746   6.38757   6.44767   6.65332
 Alpha virt. eigenvalues --   11.72869  16.64804
          Condensed to atoms (all electrons):
               1          2          3
     1  N    6.802693   0.713454  -0.106259
     2  C    0.713454   5.037127   0.367539
     3  S   -0.106259   0.367539  16.210711
 Mulliken charges:
               1
     1  N   -0.409889
     2  C   -0.118120
     3  S   -0.471991
 Sum of Mulliken charges =  -1.00000
 Mulliken charges with hydrogens summed into heavy atoms:
               1
     1  N   -0.409889
     2  C   -0.118120
     3  S   -0.471991
 Electronic spatial extent (au):  <R**2>=            226.2679
 Charge=             -1.0000 electrons
 Dipole moment (field-independent basis, Debye):
    X=             -0.1591    Y=             -1.5826    Z=              0.0000  Tot=              1.5906
 Quadrupole moment (field-independent basis, Debye-Ang):
   XX=            -29.3472   YY=            -41.2228   ZZ=            -29.2650
   XY=             -1.0631   XZ=              0.0000   YZ=              0.0000
 Traceless Quadrupole moment (field-independent basis, Debye-Ang):
   XX=              3.9311   YY=             -7.9445   ZZ=              4.0133
   XY=             -1.0631   XZ=              0.0000   YZ=              0.0000
 Octapole moment (field-independent basis, Debye-Ang**2):
  XXX=              0.5467  YYY=            -21.6742  ZZZ=              0.0000  XYY=             -1.5009
  XXY=              1.8844  XXZ=              0.0000  XZZ=              0.1840  YZZ=              1.9834
  YYZ=              0.0000  XYZ=              0.0000
 Hexadecapole moment (field-independent basis, Debye-Ang**3):
 XXXX=            -47.2104 YYYY=           -326.5151 ZZZZ=            -45.7720 XXXY=             -9.5238
 XXXZ=              0.0000 YYYX=            -11.5492 YYYZ=              0.0000 ZZZX=              0.0000
 ZZZY=              0.0000 XXYY=            -59.8775 XXZZ=            -15.4969 YYZZ=            -59.4414
 XXYZ=              0.0000 YYXZ=              0.0000 ZZXY=             -3.1694
 N-N= 7.001586416632D+01 E-N=-1.310463738071D+03  KE= 4.896804889987D+02
 Symmetry A'   KE= 4.486841557678D+02
 Symmetry A"   KE= 4.099633323091D+01
 No NMR shielding tensors so no spin-rotation constants.
 Leave Link  601 at Wed May  4 19:03:55 2022, MaxMem=   754974720 cpu:               2.3 elap:               1.0
 (Enter /opt/cluster/programs/g16-c.01/g16/l701.exe)
 ... and contract with generalized density number  2.
 Compute integral first derivatives.
 Leave Link  701 at Wed May  4 19:03:56 2022, MaxMem=   754974720 cpu:               2.3 elap:               0.9
 (Enter /opt/cluster/programs/g16-c.01/g16/l702.exe)
 L702 exits ... SP integral derivatives will be done elsewhere.
 Leave Link  702 at Wed May  4 19:03:56 2022, MaxMem=   754974720 cpu:               0.2 elap:               0.1
 (Enter /opt/cluster/programs/g16-c.01/g16/l703.exe)
 Integral derivatives from FoFJK, PRISM(SPDF).
 Compute integral first derivatives, UseDBF=F ICtDFT=           0.
 Calling FoFJK, ICntrl=  10002127 FMM=F ISym2X=1 I1Cent= 0 IOpClX= 0 NMat=1 NMatS=1 NMatT=0.
 FoFJK:  IHMeth= 1 ICntrl=10002127 DoSepK=F KAlg= 0 I1Cent=           0 FoldK=F
 IRaf=         0 NMat=       1 IRICut=       1 DoRegI=T DoRafI=F ISym2E= 1 IDoP0=0 IntGTp=1.
 FoFCou: FMM=F IPFlag=           0 FMFlag=      100000 FMFlg1=         800
         NFxFlg=           0 DoJE=F BraDBF=F KetDBF=F FulRan=T
         wScrn=  0.000000 ICntrl=  10002127 IOpCl=  0 I1Cent=           0 NGrid=           0
         NMat0=    1 NMatS0=      1 NMatT0=    0 NMatD0=    1 NMtDS0=    0 NMtDT0=    0
 Petite list used in FoFCou.
 Leave Link  703 at Wed May  4 19:03:59 2022, MaxMem=   754974720 cpu:              15.1 elap:               3.8
 (Enter /opt/cluster/programs/g16-c.01/g16/l716.exe)
 Dipole        =-4.93805541D-02-5.91841687D-01 0.00000000D+00
 ***** Axes restored to original set *****
 -------------------------------------------------------------------
 Center     Atomic                   Forces (Hartrees/Bohr)
 Number     Number              X              Y              Z
 -------------------------------------------------------------------
      1        7          -0.004663224   -0.000000000   -0.000251499
      2        6           0.007990338   -0.000000000   -0.000128659
      3       16          -0.003327115   -0.000000000    0.000380158
 -------------------------------------------------------------------
 Cartesian Forces:  Max     0.007990338 RMS     0.003281009
 Leave Link  716 at Wed May  4 19:04:00 2022, MaxMem=   754974720 cpu:               0.5 elap:               0.2
 (Enter /opt/cluster/programs/g16-c.01/g16/l103.exe)

 GradGradGradGradGradGradGradGradGradGradGradGradGradGradGradGradGradGrad
 Berny optimization.
 FormGI is forming the generalized inverse of G from B-inverse, IUseBI=4.
 Internal  Forces:  Max     0.005253656 RMS     0.003324844
 Search for a local minimum.
 Step number   1 out of a maximum of   20
 All quantities printed in internal units (Hartrees-Bohrs-Radians)
 RMS Force = .13335D-03 SwitMx=.10000D-02 MixMth= 2
 Mixed Optimization -- En-DIIS/RFO-DIIS
 Second derivative matrix not updated -- first step.
 The second derivative matrix:
                          R1        R2        A1        A2        A3
           R1           1.08759
           R2           0.00000   0.41030
           A1           0.00000   0.00000   0.25000
           A2           0.00000   0.00000   0.00000   0.25000
           A3           0.00000   0.00000   0.00000   0.00000   0.25000
 ITU=  0
     Eigenvalues ---    0.41030   1.087591000.000001000.000001000.00000
 RFO step:  Lambda=-7.73480237D-08 EMin= 4.10299174D-01
 Linear search not attempted -- first point.
 Iteration  1 RMS(Cart)=  0.00014145 RMS(Int)=  0.00000000
 Iteration  2 RMS(Cart)=  0.00000000 RMS(Int)=  0.00000000
 Iteration  1 RMS(Cart)=  0.00000000 RMS(Int)=  0.00000000
 ITry= 1 IFail=0 DXMaxC= 2.26D-04 DCOld= 1.00D+10 DXMaxT= 3.00D-01 DXLimC= 3.00D+00 Rises=F
 ClnCor:  largest displacement from symmetrization is 2.22D-15 for atom     1.
 Variable       Old X    -DE/DX   Delta X   Delta X   Delta X     New X
                                 (Linear)    (Quad)   (Total)
    R1        2.25323   0.00025   0.00000   0.00023   0.00023   2.25346
    R2        3.13877   0.00009   0.00000   0.00022   0.00022   3.13899
    A1        3.05433   0.00525   0.00000  -0.00000   0.00000   3.05433
    A2        3.14159  -0.00000   0.00000  -0.00000   0.00000   3.14159
    A3        3.05433   0.00525   0.00000   0.00000  -0.00000   3.05433
         Item               Value     Threshold  Converged?
 Maximum Force            0.000251     0.000450     YES
 RMS     Force            0.000133     0.000300     YES
 Maximum Displacement     0.000226     0.001800     YES
 RMS     Displacement     0.000141     0.001200     YES
 Predicted change in Energy=-3.867401D-08
 Optimization completed.
    -- Stationary point found.
                           ----------------------------
                           !   Optimized Parameters   !
                           ! (Angstroms and Degrees)  !
 --------------------------                            --------------------------
 ! Name  Definition              Value          Derivative Info.                !
 --------------------------------------------------------------------------------
 ! R1    R(1,2)                  1.1924         -DE/DX =    0.0003              !
 ! R2    R(2,3)                  1.661          -DE/DX =    0.0001              !
 ! A1    L(1,2,3,-2,-1)        175.0            -DE/DX =    0.0053              !
 ! A2    L(1,2,3,-1,-2)        180.0            -DE/DX =    0.0                 !
 ! A3    A(1,2,3)              175.0            -DE/DX =    0.0053              !
 --------------------------------------------------------------------------------
 Lowest energy point so far.  Saving SCF results.
 Largest change from initial coordinates is atom    1       0.000 Angstoms.
 GradGradGradGradGradGradGradGradGradGradGradGradGradGradGradGradGradGrad

 Leave Link  103 at Wed May  4 19:04:00 2022, MaxMem=   754974720 cpu:               0.5 elap:               0.2
 (Enter /opt/cluster/programs/g16-c.01/g16/l202.exe)
                          Input orientation:                          
 ---------------------------------------------------------------------
 Center     Atomic      Atomic             Coordinates (Angstroms)
 Number     Number       Type             X           Y           Z
 ---------------------------------------------------------------------
      1          7           0       -0.000000    0.000000   -1.820943
      2          6           0       -0.000000    0.000000   -0.628586
      3         16           0        0.144763    0.000000    1.026062
 ---------------------------------------------------------------------
                    Distance matrix (angstroms):
                    1          2          3
     1  N    0.000000
     2  C    1.192357   0.000000
     3  S    2.850683   1.660968   0.000000
 Stoichiometry    CNS(1-)
 Framework group  CS[SG(CNS)]
 Deg. of freedom     3
 Full point group                 CS      NOp   2
 RotChk:  IX=0 Diff= 6.93D-13
 Largest Abelian subgroup         CS      NOp   2
 Largest concise Abelian subgroup C1      NOp   1
                         Standard orientation:                         
 ---------------------------------------------------------------------
 Center     Atomic      Atomic             Coordinates (Angstroms)
 Number     Number       Type             X           Y           Z
 ---------------------------------------------------------------------
      1          7           0        0.151120    1.812922    0.000000
      2          6           0        0.000000    0.630180    0.000000
      3         16           0       -0.066115   -1.029471   -0.000000
 ---------------------------------------------------------------------
 Rotational constants (GHZ):       15577.2043970           5.9386012           5.9363380
 Leave Link  202 at Wed May  4 19:04:00 2022, MaxMem=   754974720 cpu:               0.1 elap:               0.0
 (Enter /opt/cluster/programs/g16-c.01/g16/l9999.exe)
 Unable to Open any file for archive entry.
 1\1\GINC-NODE41\FOpt\RMP2-FC\Aug-CC-pVTZ\C1N1S1(1-)\TOEPFER\04-May-202
 2\0\\#P MP2/aug-cc-pVTZ scf(maxcycle=200) opt geom(AddGIC)\\Gaussian i
 nput\\-1,1\N,0.,0.,-1.820943\C,0.,0.,-0.628586\S,0.1447628997,0.,1.026
 0615153\\Version=ES64L-G16RevC.01\State=1-A'\HF=-489.9432999\MP2=-490.
 4769301\RMSD=4.552e-09\RMSF=3.281e-03\Dipole=0.0260278,0.,0.5933275\PG
 =CS [SG(C1N1S1)]\\@
 The archive entry for this job was punched.


 ... THE UNIVERSE IS NOT ONLY QUEERER THAN WE SUPPOSE,
 BUT QUEERER THAN WE CAN SUPPOSE ... 

                                   -- J. B. S. HALDANE
 Job cpu time:       0 days  0 hours  1 minutes 28.4 seconds.
 Elapsed time:       0 days  0 hours  0 minutes 23.9 seconds.
 File lengths (MBytes):  RWF=     11 Int=      0 D2E=      0 Chk=      3 Scr=      1
 Normal termination of Gaussian 16 at Wed May  4 19:04:00 2022.
