 Entering Gaussian System, Link 0=/opt/cluster/programs/g16-c.01/g16/g16
 Input=/scratch/toepfer/jobs/tmp.5739918/gaussian_10_scn.com
 Output=/scratch/toepfer/jobs/tmp.5739918/gaussian_10_scn.out
 Initial command:
 /opt/cluster/programs/g16-c.01/g16/l1.exe "/scratch/toepfer/jobs/tmp.5739918/Gau-147109.inp" -scrdir="/scratch/toepfer/jobs/tmp.5739918/"
 Entering Link 1 = /opt/cluster/programs/g16-c.01/g16/l1.exe PID=    147110.
  
 Copyright (c) 1988-2019, Gaussian, Inc.  All Rights Reserved.
  
 This is part of the Gaussian(R) 16 program.  It is based on
 the Gaussian(R) 09 system (copyright 2009, Gaussian, Inc.),
 the Gaussian(R) 03 system (copyright 2003, Gaussian, Inc.),
 the Gaussian(R) 98 system (copyright 1998, Gaussian, Inc.),
 the Gaussian(R) 94 system (copyright 1995, Gaussian, Inc.),
 the Gaussian 92(TM) system (copyright 1992, Gaussian, Inc.),
 the Gaussian 90(TM) system (copyright 1990, Gaussian, Inc.),
 the Gaussian 88(TM) system (copyright 1988, Gaussian, Inc.),
 the Gaussian 86(TM) system (copyright 1986, Carnegie Mellon
 University), and the Gaussian 82(TM) system (copyright 1983,
 Carnegie Mellon University). Gaussian is a federally registered
 trademark of Gaussian, Inc.
  
 This software contains proprietary and confidential information,
 including trade secrets, belonging to Gaussian, Inc.
  
 This software is provided under written license and may be
 used, copied, transmitted, or stored only in accord with that
 written license.
  
 The following legend is applicable only to US Government
 contracts under FAR:
  
                    RESTRICTED RIGHTS LEGEND
  
 Use, reproduction and disclosure by the US Government is
 subject to restrictions as set forth in subparagraphs (a)
 and (c) of the Commercial Computer Software - Restricted
 Rights clause in FAR 52.227-19.
  
 Gaussian, Inc.
 340 Quinnipiac St., Bldg. 40, Wallingford CT 06492
  
  
 ---------------------------------------------------------------
 Warning -- This program may not be used in any manner that
 competes with the business of Gaussian, Inc. or will provide
 assistance to any competitor of Gaussian, Inc.  The licensee
 of this program is prohibited from giving any competitor of
 Gaussian, Inc. access to this program.  By using this program,
 the user acknowledges that Gaussian, Inc. is engaged in the
 business of creating and licensing software in the field of
 computational chemistry and represents and warrants to the
 licensee that it is not a competitor of Gaussian, Inc. and that
 it will not use this program in any manner prohibited above.
 ---------------------------------------------------------------
  

 Cite this work as:
 Gaussian 16, Revision C.01,
 M. J. Frisch, G. W. Trucks, H. B. Schlegel, G. E. Scuseria, 
 M. A. Robb, J. R. Cheeseman, G. Scalmani, V. Barone, 
 G. A. Petersson, H. Nakatsuji, X. Li, M. Caricato, A. V. Marenich, 
 J. Bloino, B. G. Janesko, R. Gomperts, B. Mennucci, H. P. Hratchian, 
 J. V. Ortiz, A. F. Izmaylov, J. L. Sonnenberg, D. Williams-Young, 
 F. Ding, F. Lipparini, F. Egidi, J. Goings, B. Peng, A. Petrone, 
 T. Henderson, D. Ranasinghe, V. G. Zakrzewski, J. Gao, N. Rega, 
 G. Zheng, W. Liang, M. Hada, M. Ehara, K. Toyota, R. Fukuda, 
 J. Hasegawa, M. Ishida, T. Nakajima, Y. Honda, O. Kitao, H. Nakai, 
 T. Vreven, K. Throssell, J. A. Montgomery, Jr., J. E. Peralta, 
 F. Ogliaro, M. J. Bearpark, J. J. Heyd, E. N. Brothers, K. N. Kudin, 
 V. N. Staroverov, T. A. Keith, R. Kobayashi, J. Normand, 
 K. Raghavachari, A. P. Rendell, J. C. Burant, S. S. Iyengar, 
 J. Tomasi, M. Cossi, J. M. Millam, M. Klene, C. Adamo, R. Cammi, 
 J. W. Ochterski, R. L. Martin, K. Morokuma, O. Farkas, 
 J. B. Foresman, and D. J. Fox, Gaussian, Inc., Wallingford CT, 2019.
 
 ******************************************
 Gaussian 16:  ES64L-G16RevC.01  3-Jul-2019
                 4-May-2022 
 ******************************************
 %nproc=4
 Will use up to    4 processors via shared memory.
 %mem=5760MB
 %chk=gaussian_10_scn.chk
 -----------------------------------------------------
 #P MP2/aug-cc-pVTZ scf(maxcycle=200) opt geom(AddGIC)
 -----------------------------------------------------
 1/18=20,19=15,38=1,145=903/1,3;
 2/9=110,12=2,17=6,18=5,40=1/2;
 3/5=16,6=1,7=10,11=9,25=1,30=1,71=1/1,2,3;
 4//1;
 5/5=2,7=200,38=5/2;
 8/6=4,10=1/1;
 9/15=2,16=-3/6;
 10/5=1/2;
 6/7=2,8=2,9=2,10=2/1;
 7/12=2/1,2,3,16;
 1/18=20,19=15,145=903/3(2);
 2/9=110/2;
 99//99;
 2/9=110/2;
 3/5=16,6=1,7=10,11=9,25=1,30=1,71=1/1,2,3;
 4/5=5,16=3,69=1/1;
 5/5=2,7=200,38=5/2;
 8/6=4,10=1/1;
 9/15=2,16=-3/6;
 10/5=1/2;
 7/12=2/1,2,3,16;
 1/18=20,19=15,145=903/3(-8);
 2/9=110/2;
 6/7=2,8=2,9=2,10=2/1;
 99/9=10/99;
 Leave Link    1 at Wed May  4 19:07:05 2022, MaxMem=   754974720 cpu:               0.2 elap:               0.1
 (Enter /opt/cluster/programs/g16-c.01/g16/l101.exe)
 --------------
 Gaussian input
 --------------
 Symbolic Z-matrix:
 Charge = -1 Multiplicity = 1
 N                     0.        0.       -1.82094 
 C                     0.        0.       -0.62859 
 S                     1.08969   0.        0.62496 
 
 Initializing the GIC definitions file.
 Number of initial coordinates =     3
 Number of input entries/lines =     1
 Number of additional coordinates =     0
 Number of removed coordinates =     0
 Number of frozen coordinates =     1
 Number of final active and frozen coordinates =     3
 ITRead=  0  0  0
 MicOpt= -1 -1 -1
 NAtoms=      3 NQM=        3 NQMF=       0 NMMI=      0 NMMIF=      0
                NMic=       0 NMicF=      0.
                    Isotopes and Nuclear Properties:
 (Nuclear quadrupole moments (NQMom) in fm**2, nuclear magnetic moments (NMagM)
  in nuclear magnetons)

  Atom         1           2           3
 IAtWgt=          14          12          32
 AtmWgt=  14.0030740  12.0000000  31.9720718
 NucSpn=           2           0           0
 AtZEff=  -0.0000000  -0.0000000  -0.0000000
 NQMom=    2.0440000   0.0000000   0.0000000
 NMagM=    0.4037610   0.0000000   0.0000000
 AtZNuc=   7.0000000   6.0000000  16.0000000
 Leave Link  101 at Wed May  4 19:07:06 2022, MaxMem=   754974720 cpu:               1.5 elap:               0.8
 (Enter /opt/cluster/programs/g16-c.01/g16/l103.exe)

 GradGradGradGradGradGradGradGradGradGradGradGradGradGradGradGradGradGrad
 Berny optimization.
 Initialization pass.
                           ----------------------------
                           !    Initial Parameters    !
                           ! (Angstroms and Degrees)  !
 --------------------------                            --------------------------
 ! Name  Definition              Value          Derivative Info.                !
 --------------------------------------------------------------------------------
 ! R1    R(1,2)                  1.1924         estimate D2E/DX2                !
 ! R2    R(2,3)                  1.661          estimate D2E/DX2                !
 ! A1    A(1,2,3)              139.0            Frozen                          !
 --------------------------------------------------------------------------------
 Trust Radius=3.00D-01 FncErr=1.00D-07 GrdErr=1.00D-07 EigMax=2.50D+02 EigMin=1.00D-04
 Number of steps in this run=     20 maximum allowed number of steps=    100.
 GradGradGradGradGradGradGradGradGradGradGradGradGradGradGradGradGradGrad

 Leave Link  103 at Wed May  4 19:07:06 2022, MaxMem=   754974720 cpu:               0.1 elap:               0.0
 (Enter /opt/cluster/programs/g16-c.01/g16/l202.exe)
                          Input orientation:                          
 ---------------------------------------------------------------------
 Center     Atomic      Atomic             Coordinates (Angstroms)
 Number     Number       Type             X           Y           Z
 ---------------------------------------------------------------------
      1          7           0        0.000000    0.000000   -1.820943
      2          6           0        0.000000    0.000000   -0.628586
      3         16           0        1.089693    0.000000    0.624962
 ---------------------------------------------------------------------
                    Distance matrix (angstroms):
                    1          2          3
     1  N    0.000000
     2  C    1.192357   0.000000
     3  S    2.677664   1.660968   0.000000
 Stoichiometry    CNS(1-)
 Framework group  CS[SG(CNS)]
 Deg. of freedom     3
 Full point group                 CS      NOp   2
 Largest Abelian subgroup         CS      NOp   2
 Largest concise Abelian subgroup C1      NOp   1
                         Standard orientation:                         
 ---------------------------------------------------------------------
 Center     Atomic      Atomic             Coordinates (Angstroms)
 Number     Number       Type             X           Y           Z
 ---------------------------------------------------------------------
      1          7           0        0.989819    1.389042    0.000000
      2          6           0        0.000000    0.724231    0.000000
      3         16           0       -0.433046   -0.879292    0.000000
 ---------------------------------------------------------------------
 Rotational constants (GHZ):         244.4783997           6.6778917           6.5003359
 Leave Link  202 at Wed May  4 19:07:06 2022, MaxMem=   754974720 cpu:               0.2 elap:               0.1
 (Enter /opt/cluster/programs/g16-c.01/g16/l301.exe)
 Standard basis: Aug-CC-pVTZ (5D, 7F)
 Ernie: Thresh=  0.10000D-02 Tol=  0.10000D-05 Strict=F.
 Ernie:  19 primitive shells out of 124 were deleted.
 There are   114 symmetry adapted cartesian basis functions of A'  symmetry.
 There are    55 symmetry adapted cartesian basis functions of A"  symmetry.
 There are    93 symmetry adapted basis functions of A'  symmetry.
 There are    49 symmetry adapted basis functions of A"  symmetry.
   142 basis functions,   258 primitive gaussians,   169 cartesian basis functions
    15 alpha electrons       15 beta electrons
       nuclear repulsion energy        71.3592689733 Hartrees.
 IExCor=    0 DFT=F Ex=HF Corr=None ExCW=0 ScaHFX=  1.000000
 ScaDFX=  1.000000  1.000000  1.000000  1.000000 ScalE2=  1.000000  1.000000
 IRadAn=      5 IRanWt=     -1 IRanGd=            0 ICorTp=0 IEmpDi=  4
 NAtoms=    3 NActive=    3 NUniq=    3 SFac= 1.00D+00 NAtFMM=   60 NAOKFM=F Big=F
 Integral buffers will be    131072 words long.
 Raffenetti 1 integral format.
 Two-electron integral symmetry is turned on.
 Leave Link  301 at Wed May  4 19:07:06 2022, MaxMem=   754974720 cpu:               0.2 elap:               0.1
 (Enter /opt/cluster/programs/g16-c.01/g16/l302.exe)
 NPDir=0 NMtPBC=     1 NCelOv=     1 NCel=       1 NClECP=     1 NCelD=      1
         NCelK=      1 NCelE2=     1 NClLst=     1 CellRange=     0.0.
 One-electron integrals computed using PRISM.
 One-electron integral symmetry used in STVInt
 NBasis=   142 RedAO= T EigKep=  1.07D-04  NBF=    93    49
 NBsUse=   142 1.00D-06 EigRej= -1.00D+00 NBFU=    93    49
 Leave Link  302 at Wed May  4 19:07:08 2022, MaxMem=   754974720 cpu:               4.7 elap:               2.3
 (Enter /opt/cluster/programs/g16-c.01/g16/l303.exe)
 DipDrv:  MaxL=1.
 Leave Link  303 at Wed May  4 19:07:08 2022, MaxMem=   754974720 cpu:               0.1 elap:               0.0
 (Enter /opt/cluster/programs/g16-c.01/g16/l401.exe)
 ExpMin= 3.51D-02 ExpMax= 3.74D+05 ExpMxC= 1.18D+03 IAcc=3 IRadAn=         5 AccDes= 0.00D+00
 Harris functional with IExCor=  205 and IRadAn=       5 diagonalized for initial guess.
 HarFok:  IExCor=  205 AccDes= 0.00D+00 IRadAn=         5 IDoV= 1 UseB2=F ITyADJ=14
 ICtDFT=  3500011 ScaDFX=  1.000000  1.000000  1.000000  1.000000
 FoFCou: FMM=F IPFlag=           0 FMFlag=      100000 FMFlg1=           0
         NFxFlg=           0 DoJE=T BraDBF=F KetDBF=T FulRan=T
         wScrn=  0.000000 ICntrl=       500 IOpCl=  0 I1Cent=   200000004 NGrid=           0
         NMat0=    1 NMatS0=      1 NMatT0=    0 NMatD0=    1 NMtDS0=    0 NMtDT0=    0
 Petite list used in FoFCou.
 Harris En= -489.734962437985    
 JPrj=0 DoOrth=F DoCkMO=F.
 Initial guess orbital symmetries:
       Occupied  (A') (A') (A') (A') (A') (A") (A') (A') (A') (A')
                 (A') (A") (A') (A") (A')
       Virtual   (A') (A") (A') (A') (A') (A") (A') (A') (A") (A')
                 (A") (A') (A') (A') (A") (A') (A') (A") (A') (A')
                 (A") (A') (A') (A') (A") (A") (A') (A') (A') (A')
                 (A") (A') (A") (A') (A") (A') (A") (A") (A') (A')
                 (A') (A') (A") (A') (A') (A') (A") (A') (A") (A")
                 (A') (A') (A") (A') (A') (A") (A') (A") (A') (A')
                 (A') (A") (A') (A") (A') (A") (A') (A") (A') (A')
                 (A') (A') (A") (A") (A') (A") (A') (A') (A") (A')
                 (A") (A') (A") (A') (A") (A') (A') (A') (A") (A')
                 (A') (A") (A') (A") (A') (A') (A") (A') (A') (A")
                 (A') (A") (A") (A') (A') (A") (A') (A') (A') (A")
                 (A') (A') (A") (A') (A') (A") (A") (A') (A") (A')
                 (A") (A') (A') (A') (A') (A') (A')
 The electronic state of the initial guess is 1-A'.
 Leave Link  401 at Wed May  4 19:07:09 2022, MaxMem=   754974720 cpu:               1.2 elap:               0.3
 (Enter /opt/cluster/programs/g16-c.01/g16/l502.exe)
 Keep R1 ints in memory in symmetry-blocked form, NReq=77616006.
 FoFCou: FMM=F IPFlag=           0 FMFlag=           0 FMFlg1=           0
         NFxFlg=           0 DoJE=F BraDBF=F KetDBF=F FulRan=T
         wScrn=  0.000000 ICntrl=       600 IOpCl=  0 I1Cent=           0 NGrid=           0
         NMat0=    1 NMatS0=  10153 NMatT0=    0 NMatD0=    1 NMtDS0=    0 NMtDT0=    0
 Petite list used in FoFCou.
 Closed shell SCF:
 Using DIIS extrapolation, IDIIS=  1040.
 NGot=   754974720 LenX=   728846748 LenY=   728817746
 Requested convergence on RMS density matrix=1.00D-08 within 200 cycles.
 Requested convergence on MAX density matrix=1.00D-06.
 Requested convergence on             energy=1.00D-06.
 No special actions if energy rises.

 Cycle   1  Pass 1  IDiag  1:
 E= -489.721063376854    
 DIIS: error= 3.85D-02 at cycle   1 NSaved=   1.
 NSaved= 1 IEnMin= 1 EnMin= -489.721063376854     IErMin= 1 ErrMin= 3.85D-02
 ErrMax= 3.85D-02  0.00D+00 EMaxC= 1.00D-01 BMatC= 3.44D-01 BMatP= 3.44D-01
 IDIUse=3 WtCom= 6.15D-01 WtEn= 3.85D-01
 Coeff-Com:  0.100D+01
 Coeff-En:   0.100D+01
 Coeff:      0.100D+01
 Gap=     0.482 Goal=   None    Shift=    0.000
 GapD=    0.482 DampG=2.000 DampE=0.500 DampFc=1.0000 IDamp=-1.
 RMSDP=3.41D-03 MaxDP=6.80D-02              OVMax= 2.29D-01

 Cycle   2  Pass 1  IDiag  1:
 E= -489.833486730149     Delta-E=       -0.112423353295 Rises=F Damp=F
 DIIS: error= 2.02D-02 at cycle   2 NSaved=   2.
 NSaved= 2 IEnMin= 2 EnMin= -489.833486730149     IErMin= 2 ErrMin= 2.02D-02
 ErrMax= 2.02D-02  0.00D+00 EMaxC= 1.00D-01 BMatC= 7.65D-02 BMatP= 3.44D-01
 IDIUse=3 WtCom= 7.98D-01 WtEn= 2.02D-01
 Coeff-Com:  0.260D+00 0.740D+00
 Coeff-En:   0.114D+00 0.886D+00
 Coeff:      0.231D+00 0.769D+00
 Gap=     0.357 Goal=   None    Shift=    0.000
 RMSDP=1.48D-03 MaxDP=4.30D-02 DE=-1.12D-01 OVMax= 9.45D-02

 Cycle   3  Pass 1  IDiag  1:
 E= -489.889826738882     Delta-E=       -0.056340008733 Rises=F Damp=F
 DIIS: error= 1.28D-02 at cycle   3 NSaved=   3.
 NSaved= 3 IEnMin= 3 EnMin= -489.889826738882     IErMin= 3 ErrMin= 1.28D-02
 ErrMax= 1.28D-02  0.00D+00 EMaxC= 1.00D-01 BMatC= 1.71D-02 BMatP= 7.65D-02
 IDIUse=3 WtCom= 8.72D-01 WtEn= 1.28D-01
 Coeff-Com: -0.133D-01 0.304D+00 0.709D+00
 Coeff-En:   0.000D+00 0.680D-01 0.932D+00
 Coeff:     -0.116D-01 0.274D+00 0.738D+00
 Gap=     0.309 Goal=   None    Shift=    0.000
 RMSDP=6.03D-04 MaxDP=1.32D-02 DE=-5.63D-02 OVMax= 5.41D-02

 Cycle   4  Pass 1  IDiag  1:
 E= -489.904786232864     Delta-E=       -0.014959493982 Rises=F Damp=F
 DIIS: error= 5.21D-03 at cycle   4 NSaved=   4.
 NSaved= 4 IEnMin= 4 EnMin= -489.904786232864     IErMin= 4 ErrMin= 5.21D-03
 ErrMax= 5.21D-03  0.00D+00 EMaxC= 1.00D-01 BMatC= 1.25D-03 BMatP= 1.71D-02
 IDIUse=3 WtCom= 9.48D-01 WtEn= 5.21D-02
 Coeff-Com: -0.143D-01 0.551D-01 0.281D+00 0.679D+00
 Coeff-En:   0.000D+00 0.000D+00 0.000D+00 0.100D+01
 Coeff:     -0.135D-01 0.522D-01 0.266D+00 0.695D+00
 Gap=     0.301 Goal=   None    Shift=    0.000
 RMSDP=1.52D-04 MaxDP=3.39D-03 DE=-1.50D-02 OVMax= 1.43D-02

 Cycle   5  Pass 1  IDiag  1:
 E= -489.906075647939     Delta-E=       -0.001289415076 Rises=F Damp=F
 DIIS: error= 1.07D-03 at cycle   5 NSaved=   5.
 NSaved= 5 IEnMin= 5 EnMin= -489.906075647939     IErMin= 5 ErrMin= 1.07D-03
 ErrMax= 1.07D-03  0.00D+00 EMaxC= 1.00D-01 BMatC= 7.05D-05 BMatP= 1.25D-03
 IDIUse=3 WtCom= 9.89D-01 WtEn= 1.07D-02
 Coeff-Com:  0.264D-02-0.431D-01-0.991D-01 0.223D-02 0.114D+01
 Coeff-En:   0.000D+00 0.000D+00 0.000D+00 0.000D+00 0.100D+01
 Coeff:      0.261D-02-0.426D-01-0.980D-01 0.220D-02 0.114D+01
 Gap=     0.300 Goal=   None    Shift=    0.000
 RMSDP=1.07D-04 MaxDP=2.04D-03 DE=-1.29D-03 OVMax= 1.05D-02

 Cycle   6  Pass 1  IDiag  1:
 E= -489.906323929755     Delta-E=       -0.000248281815 Rises=F Damp=F
 DIIS: error= 5.24D-04 at cycle   6 NSaved=   6.
 NSaved= 6 IEnMin= 6 EnMin= -489.906323929755     IErMin= 6 ErrMin= 5.24D-04
 ErrMax= 5.24D-04  0.00D+00 EMaxC= 1.00D-01 BMatC= 1.33D-05 BMatP= 7.05D-05
 IDIUse=3 WtCom= 9.95D-01 WtEn= 5.24D-03
 Coeff-Com:  0.125D-02-0.112D-01-0.323D-01-0.843D-01 0.655D-01 0.106D+01
 Coeff-En:   0.000D+00 0.000D+00 0.000D+00 0.000D+00 0.000D+00 0.100D+01
 Coeff:      0.124D-02-0.111D-01-0.321D-01-0.839D-01 0.652D-01 0.106D+01
 Gap=     0.302 Goal=   None    Shift=    0.000
 RMSDP=5.54D-05 MaxDP=1.31D-03 DE=-2.48D-04 OVMax= 5.86D-03

 Cycle   7  Pass 1  IDiag  1:
 E= -489.906383894708     Delta-E=       -0.000059964953 Rises=F Damp=F
 DIIS: error= 2.65D-04 at cycle   7 NSaved=   7.
 NSaved= 7 IEnMin= 7 EnMin= -489.906383894708     IErMin= 7 ErrMin= 2.65D-04
 ErrMax= 2.65D-04  0.00D+00 EMaxC= 1.00D-01 BMatC= 3.60D-06 BMatP= 1.33D-05
 IDIUse=3 WtCom= 9.97D-01 WtEn= 2.65D-03
 Coeff-Com: -0.416D-03 0.884D-02 0.249D-01-0.121D-02-0.217D+00-0.230D+00
 Coeff-Com:  0.141D+01
 Coeff-En:   0.000D+00 0.000D+00 0.000D+00 0.000D+00 0.000D+00 0.000D+00
 Coeff-En:   0.100D+01
 Coeff:     -0.415D-03 0.881D-02 0.248D-01-0.121D-02-0.216D+00-0.229D+00
 Coeff:      0.141D+01
 Gap=     0.301 Goal=   None    Shift=    0.000
 RMSDP=4.67D-05 MaxDP=1.33D-03 DE=-6.00D-05 OVMax= 4.55D-03

 Cycle   8  Pass 1  IDiag  1:
 E= -489.906409224867     Delta-E=       -0.000025330159 Rises=F Damp=F
 DIIS: error= 1.71D-04 at cycle   8 NSaved=   8.
 NSaved= 8 IEnMin= 8 EnMin= -489.906409224867     IErMin= 8 ErrMin= 1.71D-04
 ErrMax= 1.71D-04  0.00D+00 EMaxC= 1.00D-01 BMatC= 8.29D-07 BMatP= 3.60D-06
 IDIUse=3 WtCom= 9.98D-01 WtEn= 1.71D-03
 Coeff-Com: -0.150D-03-0.188D-02-0.429D-02 0.186D-01 0.112D+00-0.107D+00
 Coeff-Com: -0.856D+00 0.184D+01
 Coeff-En:   0.000D+00 0.000D+00 0.000D+00 0.000D+00 0.000D+00 0.000D+00
 Coeff-En:   0.000D+00 0.100D+01
 Coeff:     -0.150D-03-0.188D-02-0.428D-02 0.186D-01 0.112D+00-0.106D+00
 Coeff:     -0.855D+00 0.184D+01
 Gap=     0.301 Goal=   None    Shift=    0.000
 RMSDP=3.33D-05 MaxDP=1.11D-03 DE=-2.53D-05 OVMax= 2.78D-03

 Cycle   9  Pass 1  IDiag  1:
 E= -489.906417197191     Delta-E=       -0.000007972324 Rises=F Damp=F
 DIIS: error= 6.33D-05 at cycle   9 NSaved=   9.
 NSaved= 9 IEnMin= 9 EnMin= -489.906417197191     IErMin= 9 ErrMin= 6.33D-05
 ErrMax= 6.33D-05  0.00D+00 EMaxC= 1.00D-01 BMatC= 1.13D-07 BMatP= 8.29D-07
 IDIUse=1 WtCom= 1.00D+00 WtEn= 0.00D+00
 Coeff-Com:  0.131D-03-0.120D-02-0.366D-02-0.468D-02 0.980D-02 0.638D-01
 Coeff-Com:  0.316D-02-0.544D+00 0.148D+01
 Coeff:      0.131D-03-0.120D-02-0.366D-02-0.468D-02 0.980D-02 0.638D-01
 Coeff:      0.316D-02-0.544D+00 0.148D+01
 Gap=     0.301 Goal=   None    Shift=    0.000
 RMSDP=1.07D-05 MaxDP=3.14D-04 DE=-7.97D-06 OVMax= 8.16D-04

 Cycle  10  Pass 1  IDiag  1:
 E= -489.906418178790     Delta-E=       -0.000000981599 Rises=F Damp=F
 DIIS: error= 1.65D-05 at cycle  10 NSaved=  10.
 NSaved=10 IEnMin=10 EnMin= -489.906418178790     IErMin=10 ErrMin= 1.65D-05
 ErrMax= 1.65D-05  0.00D+00 EMaxC= 1.00D-01 BMatC= 1.29D-08 BMatP= 1.13D-07
 IDIUse=1 WtCom= 1.00D+00 WtEn= 0.00D+00
 Coeff-Com:  0.303D-04 0.324D-03 0.736D-03-0.191D-02-0.171D-01 0.273D-02
 Coeff-Com:  0.132D+00-0.203D+00-0.244D+00 0.133D+01
 Coeff:      0.303D-04 0.324D-03 0.736D-03-0.191D-02-0.171D-01 0.273D-02
 Coeff:      0.132D+00-0.203D+00-0.244D+00 0.133D+01
 Gap=     0.301 Goal=   None    Shift=    0.000
 RMSDP=2.72D-06 MaxDP=6.34D-05 DE=-9.82D-07 OVMax= 2.54D-04

 Cycle  11  Pass 1  IDiag  1:
 E= -489.906418263808     Delta-E=       -0.000000085018 Rises=F Damp=F
 DIIS: error= 3.31D-06 at cycle  11 NSaved=  11.
 NSaved=11 IEnMin=11 EnMin= -489.906418263808     IErMin=11 ErrMin= 3.31D-06
 ErrMax= 3.31D-06  0.00D+00 EMaxC= 1.00D-01 BMatC= 1.05D-09 BMatP= 1.29D-08
 IDIUse=1 WtCom= 1.00D+00 WtEn= 0.00D+00
 Coeff-Com: -0.218D-04 0.309D-04 0.677D-04 0.124D-02 0.432D-02-0.650D-02
 Coeff-Com: -0.410D-01 0.120D+00-0.915D-01-0.316D+00 0.133D+01
 Coeff:     -0.218D-04 0.309D-04 0.677D-04 0.124D-02 0.432D-02-0.650D-02
 Coeff:     -0.410D-01 0.120D+00-0.915D-01-0.316D+00 0.133D+01
 Gap=     0.301 Goal=   None    Shift=    0.000
 RMSDP=9.63D-07 MaxDP=4.19D-05 DE=-8.50D-08 OVMax= 4.47D-05

 Cycle  12  Pass 1  IDiag  1:
 E= -489.906418268287     Delta-E=       -0.000000004479 Rises=F Damp=F
 DIIS: error= 9.66D-07 at cycle  12 NSaved=  12.
 NSaved=12 IEnMin=12 EnMin= -489.906418268287     IErMin=12 ErrMin= 9.66D-07
 ErrMax= 9.66D-07  0.00D+00 EMaxC= 1.00D-01 BMatC= 6.63D-11 BMatP= 1.05D-09
 IDIUse=1 WtCom= 1.00D+00 WtEn= 0.00D+00
 Coeff-Com:  0.165D-05-0.309D-04-0.894D-04-0.763D-04 0.873D-03 0.405D-03
 Coeff-Com: -0.400D-02-0.224D-02 0.328D-01-0.527D-01-0.236D+00 0.126D+01
 Coeff:      0.165D-05-0.309D-04-0.894D-04-0.763D-04 0.873D-03 0.405D-03
 Coeff:     -0.400D-02-0.224D-02 0.328D-01-0.527D-01-0.236D+00 0.126D+01
 Gap=     0.301 Goal=   None    Shift=    0.000
 RMSDP=3.27D-07 MaxDP=1.46D-05 DE=-4.48D-09 OVMax= 1.60D-05

 Cycle  13  Pass 1  IDiag  1:
 E= -489.906418268643     Delta-E=       -0.000000000356 Rises=F Damp=F
 DIIS: error= 2.96D-07 at cycle  13 NSaved=  13.
 NSaved=13 IEnMin=13 EnMin= -489.906418268643     IErMin=13 ErrMin= 2.96D-07
 ErrMax= 2.96D-07  0.00D+00 EMaxC= 1.00D-01 BMatC= 5.92D-12 BMatP= 6.63D-11
 IDIUse=1 WtCom= 1.00D+00 WtEn= 0.00D+00
 Coeff-Com:  0.216D-05 0.108D-05 0.692D-05-0.128D-03-0.627D-03 0.512D-03
 Coeff-Com:  0.564D-02-0.129D-01 0.469D-02 0.403D-01-0.958D-01-0.208D+00
 Coeff-Com:  0.127D+01
 Coeff:      0.216D-05 0.108D-05 0.692D-05-0.128D-03-0.627D-03 0.512D-03
 Coeff:      0.564D-02-0.129D-01 0.469D-02 0.403D-01-0.958D-01-0.208D+00
 Coeff:      0.127D+01
 Gap=     0.301 Goal=   None    Shift=    0.000
 RMSDP=9.64D-08 MaxDP=3.82D-06 DE=-3.56D-10 OVMax= 5.27D-06

 Cycle  14  Pass 1  IDiag  1:
 E= -489.906418268671     Delta-E=       -0.000000000028 Rises=F Damp=F
 DIIS: error= 5.96D-08 at cycle  14 NSaved=  14.
 NSaved=14 IEnMin=14 EnMin= -489.906418268671     IErMin=14 ErrMin= 5.96D-08
 ErrMax= 5.96D-08  0.00D+00 EMaxC= 1.00D-01 BMatC= 2.78D-13 BMatP= 5.92D-12
 IDIUse=1 WtCom= 1.00D+00 WtEn= 0.00D+00
 Coeff-Com: -0.566D-06 0.140D-05 0.419D-05 0.311D-04 0.792D-04-0.891D-04
 Coeff-Com: -0.982D-03 0.264D-02-0.213D-02-0.656D-02 0.363D-01-0.332D-01
 Coeff-Com: -0.272D+00 0.128D+01
 Coeff:     -0.566D-06 0.140D-05 0.419D-05 0.311D-04 0.792D-04-0.891D-04
 Coeff:     -0.982D-03 0.264D-02-0.213D-02-0.656D-02 0.363D-01-0.332D-01
 Coeff:     -0.272D+00 0.128D+01
 Gap=     0.301 Goal=   None    Shift=    0.000
 RMSDP=1.52D-08 MaxDP=4.08D-07 DE=-2.82D-11 OVMax= 8.58D-07

 Cycle  15  Pass 1  IDiag  1:
 E= -489.906418268673     Delta-E=       -0.000000000002 Rises=F Damp=F
 DIIS: error= 1.54D-08 at cycle  15 NSaved=  15.
 NSaved=15 IEnMin=15 EnMin= -489.906418268673     IErMin=15 ErrMin= 1.54D-08
 ErrMax= 1.54D-08  0.00D+00 EMaxC= 1.00D-01 BMatC= 1.22D-14 BMatP= 2.78D-13
 IDIUse=1 WtCom= 1.00D+00 WtEn= 0.00D+00
 Coeff-Com:  0.656D-07-0.227D-06-0.950D-06-0.407D-05-0.423D-05 0.140D-04
 Coeff-Com:  0.624D-04-0.263D-03 0.478D-03 0.115D-03-0.620D-02 0.152D-01
 Coeff-Com:  0.331D-01-0.389D+00 0.135D+01
 Coeff:      0.656D-07-0.227D-06-0.950D-06-0.407D-05-0.423D-05 0.140D-04
 Coeff:      0.624D-04-0.263D-03 0.478D-03 0.115D-03-0.620D-02 0.152D-01
 Coeff:      0.331D-01-0.389D+00 0.135D+01
 Gap=     0.301 Goal=   None    Shift=    0.000
 RMSDP=3.61D-09 MaxDP=1.19D-07 DE=-2.39D-12 OVMax= 1.29D-07

 SCF Done:  E(RHF) =  -489.906418269     A.U. after   15 cycles
            NFock= 15  Conv=0.36D-08     -V/T= 2.0003
 KE= 4.897738232454D+02 PE=-1.313301093515D+03 EE= 2.622615830272D+02
 Leave Link  502 at Wed May  4 19:07:20 2022, MaxMem=   754974720 cpu:              34.2 elap:              11.6
 (Enter /opt/cluster/programs/g16-c.01/g16/l801.exe)
 ExpMin= 3.51D-02 ExpMax= 3.74D+05 ExpMxC= 1.18D+03 IAcc=3 IRadAn=         5 AccDes= 0.00D+00
 HarFok:  IExCor=  205 AccDes= 0.00D+00 IRadAn=         5 IDoV=-2 UseB2=F ITyADJ=14
 ICtDFT= 12500011 ScaDFX=  1.000000  1.000000  1.000000  1.000000
 Largest valence mixing into a core orbital is  5.36D-04
 Largest core mixing into a valence orbital is  1.39D-04
 Range of M.O.s used for correlation:     8   142
 NBasis=   142 NAE=    15 NBE=    15 NFC=     7 NFV=     0
 NROrb=    135 NOA=     8 NOB=     8 NVA=   127 NVB=   127

 **** Warning!!: The largest alpha MO coefficient is  0.18841125D+02

 Leave Link  801 at Wed May  4 19:07:20 2022, MaxMem=   754974720 cpu:               0.4 elap:               0.1
 (Enter /opt/cluster/programs/g16-c.01/g16/l906.exe)
 Frozen-core derivative calculation, NFC=   7 NFV=   0.
 FulOut=F Deriv=T AODrv=T NAtomX=     3
   MMem=          74  MDisk=           8 MDiskD=           8
  W3Min=      359970 MinDsk=      723803 NBas6D=         169
 NBas2D=       14809    NTT=       14365    LW2=     3500000
    MDV=   754677396 MDiskM=       22268 NBas2p=       14801
 Fully direct method using O(ONN) memory.
 IMap=   1   2   3   4   5   6   7   8   9  10  11  12  13  14  15
 JobTyp=1 Pass  1:  I=   8 to  15 NPSUse=  4 ParTrn=T ParDer=T DoDerP=T.
 Spin components of T(2) and E(2):
     alpha-alpha T2 =       0.2948438862D-01 E2=     -0.6984189356D-01
     alpha-beta  T2 =       0.1568342155D+00 E2=     -0.3985511458D+00
     beta-beta   T2 =       0.2948438862D-01 E2=     -0.6984189356D-01
 The integrals were generated   1 times.
 ANorm=    0.1102634569D+01
 E2 =    -0.5382349329D+00 EUMP2 =    -0.49044465320159D+03
 Leave Link  906 at Wed May  4 19:07:28 2022, MaxMem=   754974720 cpu:              31.5 elap:               7.9
 (Enter /opt/cluster/programs/g16-c.01/g16/l1002.exe)
 Minotr:  Closed shell wavefunction.
          Computing MP2/KS-MP2 derivatives.
          Using Z-Vector for PSCF gradient.
          Skipping F1 and S1 gradient terms here.
          IDoAtm=111
          Frozen-core window.
          Direct CPHF calculation.
          Differentiating once with respect to electric field.
                with respect to dipole field.
          Differentiating once with respect to nuclear coordinates.
          Using symmetry in CPHF.
          Requested convergence is 1.0D-10 RMS, and 1.0D-09 maximum.
          NewPWx=F KeepS1=T KeepF1=T KeepIn=T MapXYZ=F SortEE=F KeepMc=T.
 Keep R1 ints in memory in symmetry-blocked form, NReq=77616884.
 FoFCou: FMM=F IPFlag=           0 FMFlag=           0 FMFlg1=           0
         NFxFlg=           0 DoJE=F BraDBF=F KetDBF=F FulRan=T
         wScrn=  0.000000 ICntrl=       600 IOpCl=  0 I1Cent=           0 NGrid=           0
         NMat0=    1 NMatS0=  10153 NMatT0=    0 NMatD0=    1 NMtDS0=    0 NMtDT0=    0
 Petite list used in FoFCou.
          MDV=     754974720 using IRadAn=       5.
          Solving linear equations separately, MaxMat=       0.
          There are     1 degrees of freedom in the 1st order CPHF.  IDoFFX=0 NUNeed=     1.
 LinEq1:  Iter=  0 NonCon=     1 RMS=5.12D-03 Max=9.54D-02 NDo=     1
 AX will form     1 AO Fock derivatives at one time.
 LinEq1:  Iter=  1 NonCon=     1 RMS=1.80D-03 Max=1.73D-02 NDo=     1
 LinEq1:  Iter=  2 NonCon=     1 RMS=7.42D-04 Max=1.03D-02 NDo=     1
 LinEq1:  Iter=  3 NonCon=     1 RMS=3.65D-04 Max=4.26D-03 NDo=     1
 LinEq1:  Iter=  4 NonCon=     1 RMS=2.25D-04 Max=6.22D-03 NDo=     1
 LinEq1:  Iter=  5 NonCon=     1 RMS=8.06D-05 Max=8.07D-04 NDo=     1
 LinEq1:  Iter=  6 NonCon=     1 RMS=2.15D-05 Max=2.53D-04 NDo=     1
 LinEq1:  Iter=  7 NonCon=     1 RMS=5.41D-06 Max=5.71D-05 NDo=     1
 LinEq1:  Iter=  8 NonCon=     1 RMS=1.24D-06 Max=1.15D-05 NDo=     1
 LinEq1:  Iter=  9 NonCon=     1 RMS=3.56D-07 Max=5.19D-06 NDo=     1
 LinEq1:  Iter= 10 NonCon=     1 RMS=8.05D-08 Max=8.65D-07 NDo=     1
 LinEq1:  Iter= 11 NonCon=     1 RMS=1.63D-08 Max=1.19D-07 NDo=     1
 LinEq1:  Iter= 12 NonCon=     1 RMS=3.44D-09 Max=4.93D-08 NDo=     1
 LinEq1:  Iter= 13 NonCon=     1 RMS=6.23D-10 Max=8.62D-09 NDo=     1
 LinEq1:  Iter= 14 NonCon=     1 RMS=1.05D-10 Max=1.20D-09 NDo=     1
 LinEq1:  Iter= 15 NonCon=     0 RMS=1.86D-11 Max=1.51D-10 NDo=     1
 Linear equations converged to 1.000D-10 1.000D-09 after    15 iterations.
 End of Minotr F.D. properties file   721 does not exist.
 End of Minotr F.D. properties file   722 does not exist.
 End of Minotr F.D. properties file   788 does not exist.
 Leave Link 1002 at Wed May  4 19:07:32 2022, MaxMem=   754974720 cpu:              13.3 elap:               3.7
 (Enter /opt/cluster/programs/g16-c.01/g16/l601.exe)
 Copying SCF densities to generalized density rwf, IOpCl= 0 IROHF=0.

 **********************************************************************

            Population analysis using the SCF Density.

 **********************************************************************

 Orbital symmetries:
       Occupied  (A') (A') (A') (A') (A') (A") (A') (A') (A') (A')
                 (A') (A") (A') (A") (A')
       Virtual   (A') (A') (A') (A") (A') (A") (A') (A") (A') (A')
                 (A') (A') (A") (A') (A') (A") (A') (A') (A") (A')
                 (A") (A') (A') (A") (A') (A") (A') (A') (A') (A')
                 (A") (A") (A') (A') (A") (A') (A") (A') (A") (A')
                 (A') (A') (A") (A') (A') (A") (A') (A") (A') (A")
                 (A') (A') (A") (A') (A') (A") (A') (A") (A') (A')
                 (A') (A") (A') (A") (A') (A") (A') (A") (A') (A')
                 (A') (A") (A') (A") (A") (A') (A') (A') (A") (A")
                 (A') (A') (A") (A') (A") (A') (A') (A') (A") (A')
                 (A') (A") (A') (A") (A') (A') (A") (A') (A') (A")
                 (A') (A") (A') (A") (A') (A") (A') (A') (A') (A")
                 (A') (A') (A") (A') (A') (A") (A") (A') (A") (A')
                 (A") (A') (A') (A') (A') (A') (A')
 The electronic state is 1-A'.
 Alpha  occ. eigenvalues --  -91.72153 -15.36927 -11.09648  -8.72410  -6.40616
 Alpha  occ. eigenvalues --   -6.40350  -6.40335  -1.00788  -0.75862  -0.41504
 Alpha  occ. eigenvalues --   -0.33212  -0.30411  -0.30152  -0.13406  -0.12433
 Alpha virt. eigenvalues --    0.17685   0.19155   0.21747   0.23340   0.23841
 Alpha virt. eigenvalues --    0.24266   0.24718   0.29059   0.30279   0.30762
 Alpha virt. eigenvalues --    0.32866   0.37897   0.39544   0.42207   0.44967
 Alpha virt. eigenvalues --    0.46462   0.47049   0.53242   0.53659   0.54814
 Alpha virt. eigenvalues --    0.55808   0.59501   0.60752   0.63633   0.66562
 Alpha virt. eigenvalues --    0.69924   0.70310   0.74573   0.75524   0.76974
 Alpha virt. eigenvalues --    0.77563   0.80788   0.81403   0.87452   0.90316
 Alpha virt. eigenvalues --    0.92990   0.96241   0.96698   1.00274   1.01958
 Alpha virt. eigenvalues --    1.03292   1.07958   1.08122   1.15628   1.17252
 Alpha virt. eigenvalues --    1.17595   1.22154   1.25643   1.26148   1.27683
 Alpha virt. eigenvalues --    1.30086   1.34534   1.37217   1.39264   1.45413
 Alpha virt. eigenvalues --    1.49579   1.50965   1.55300   1.57265   1.61879
 Alpha virt. eigenvalues --    1.71422   1.75530   1.78113   1.78384   1.82849
 Alpha virt. eigenvalues --    1.90407   1.90831   2.02561   2.02973   2.06302
 Alpha virt. eigenvalues --    2.13195   2.16758   2.17164   2.27527   2.30144
 Alpha virt. eigenvalues --    2.30434   2.34143   2.37524   2.44193   2.47316
 Alpha virt. eigenvalues --    2.48738   2.54494   2.59533   2.61129   2.61269
 Alpha virt. eigenvalues --    2.61362   2.65334   2.72195   2.75038   2.82993
 Alpha virt. eigenvalues --    2.91022   2.94922   3.18586   3.27193   3.32828
 Alpha virt. eigenvalues --    3.62054   3.69173   3.71904   3.74717   3.75797
 Alpha virt. eigenvalues --    3.80462   3.91338   3.99012   4.00651   4.04231
 Alpha virt. eigenvalues --    4.07951   4.15035   4.26925   4.58677   4.69348
 Alpha virt. eigenvalues --    4.86465   4.90663   5.19768   5.20284   5.45815
 Alpha virt. eigenvalues --    5.47263   5.65721   5.67497   5.83088   5.85479
 Alpha virt. eigenvalues --    6.21633   6.23636   6.32013   6.34200   6.69097
 Alpha virt. eigenvalues --   12.01125  16.05450
          Condensed to atoms (all electrons):
               1          2          3
     1  N    6.912142   0.642766  -0.134456
     2  C    0.642766   5.155383   0.303594
     3  S   -0.134456   0.303594  16.308666
 Mulliken charges:
               1
     1  N   -0.420452
     2  C   -0.101744
     3  S   -0.477804
 Sum of Mulliken charges =  -1.00000
 Mulliken charges with hydrogens summed into heavy atoms:
               1
     1  N   -0.420452
     2  C   -0.101744
     3  S   -0.477804
 Electronic spatial extent (au):  <R**2>=            212.4174
 Charge=             -1.0000 electrons
 Dipole moment (field-independent basis, Debye):
    X=             -0.6284    Y=             -0.5042    Z=              0.0000  Tot=              0.8056
 Quadrupole moment (field-independent basis, Debye-Ang):
   XX=            -33.1477   YY=            -36.3667   ZZ=            -29.4348
   XY=             -5.6548   XZ=              0.0000   YZ=              0.0000
 Traceless Quadrupole moment (field-independent basis, Debye-Ang):
   XX=             -0.1646   YY=             -3.3836   ZZ=              3.5483
   XY=             -5.6548   XZ=              0.0000   YZ=              0.0000
 Octapole moment (field-independent basis, Debye-Ang**2):
  XXX=              2.7011  YYY=            -11.2255  ZZZ=              0.0000  XYY=             -6.4126
  XXY=             -1.7382  XXZ=              0.0000  XZZ=              1.3773  YZZ=              1.8618
  YYZ=              0.0000  XYZ=              0.0000
 Hexadecapole moment (field-independent basis, Debye-Ang**3):
 XXXX=           -113.0443 YYYY=           -227.6679 ZZZZ=            -46.8038 XXXY=            -55.6505
 XXXZ=              0.0000 YYYX=            -54.9625 YYYZ=              0.0000 ZZZX=              0.0000
 ZZZY=              0.0000 XXYY=            -62.4974 XXZZ=            -26.1926 YYZZ=            -46.3372
 XXYZ=              0.0000 YYXZ=              0.0000 ZZXY=            -17.0611
 N-N= 7.135926897332D+01 E-N=-1.313301093577D+03  KE= 4.897738232454D+02
 Symmetry A'   KE= 4.487413578217D+02
 Symmetry A"   KE= 4.103246542366D+01
 No NMR shielding tensors so no spin-rotation constants.
 Leave Link  601 at Wed May  4 19:07:33 2022, MaxMem=   754974720 cpu:               2.1 elap:               0.7
 (Enter /opt/cluster/programs/g16-c.01/g16/l701.exe)
 ... and contract with generalized density number  2.
 Compute integral first derivatives.
 Leave Link  701 at Wed May  4 19:07:34 2022, MaxMem=   754974720 cpu:               2.1 elap:               0.7
 (Enter /opt/cluster/programs/g16-c.01/g16/l702.exe)
 L702 exits ... SP integral derivatives will be done elsewhere.
 Leave Link  702 at Wed May  4 19:07:34 2022, MaxMem=   754974720 cpu:               0.3 elap:               0.1
 (Enter /opt/cluster/programs/g16-c.01/g16/l703.exe)
 Integral derivatives from FoFJK, PRISM(SPDF).
 Compute integral first derivatives, UseDBF=F ICtDFT=           0.
 Calling FoFJK, ICntrl=  10002127 FMM=F ISym2X=1 I1Cent= 0 IOpClX= 0 NMat=1 NMatS=1 NMatT=0.
 FoFJK:  IHMeth= 1 ICntrl=10002127 DoSepK=F KAlg= 0 I1Cent=           0 FoldK=F
 IRaf=         0 NMat=       1 IRICut=       1 DoRegI=T DoRafI=F ISym2E= 1 IDoP0=0 IntGTp=1.
 FoFCou: FMM=F IPFlag=           0 FMFlag=      100000 FMFlg1=         800
         NFxFlg=           0 DoJE=F BraDBF=F KetDBF=F FulRan=T
         wScrn=  0.000000 ICntrl=  10002127 IOpCl=  0 I1Cent=           0 NGrid=           0
         NMat0=    1 NMatS0=      1 NMatT0=    0 NMatD0=    1 NMtDS0=    0 NMtDT0=    0
 Petite list used in FoFCou.
 Leave Link  703 at Wed May  4 19:07:38 2022, MaxMem=   754974720 cpu:              17.5 elap:               4.5
 (Enter /opt/cluster/programs/g16-c.01/g16/l716.exe)
 Dipole        =-2.18662363D-01-2.23344549D-01 0.00000000D+00
 ***** Axes restored to original set *****
 -------------------------------------------------------------------
 Center     Atomic                   Forces (Hartrees/Bohr)
 Number     Number              X              Y              Z
 -------------------------------------------------------------------
      1        7          -0.043265163   -0.000000000   -0.016223148
      2        6           0.049867489   -0.000000000   -0.023523074
      3       16          -0.006602326   -0.000000000    0.039746222
 -------------------------------------------------------------------
 Cartesian Forces:  Max     0.049867489 RMS     0.027484378
 Leave Link  716 at Wed May  4 19:07:38 2022, MaxMem=   754974720 cpu:               0.2 elap:               0.1
 (Enter /opt/cluster/programs/g16-c.01/g16/l103.exe)

 GradGradGradGradGradGradGradGradGradGradGradGradGradGradGradGradGradGrad
 Berny optimization.
 FormGI is forming the generalized inverse of G from B-inverse, IUseBI=4.
 Internal  Forces:  Max     0.097486283 RMS     0.058950475
 Search for a local minimum.
 Step number   1 out of a maximum of   20
 All quantities printed in internal units (Hartrees-Bohrs-Radians)
 RMS Force = .21470D-01 SwitMx=.10000D-02 MixMth= 1
 Mixed Optimization -- RFO/linear search
 Second derivative matrix not updated -- first step.
 The second derivative matrix:
                          R1        R2        A1
           R1           1.08759
           R2           0.00000   0.41030
           A1           0.00000   0.00000   0.25000
 ITU=  0
     Eigenvalues ---    0.41030   1.087591000.00000
 RFO step:  Lambda=-1.83985566D-03 EMin= 4.10299174D-01
 Linear search not attempted -- first point.
 Iteration  1 RMS(Cart)=  0.03249794 RMS(Int)=  0.00001131
 Iteration  2 RMS(Cart)=  0.00001341 RMS(Int)=  0.00000000
 Iteration  3 RMS(Cart)=  0.00000000 RMS(Int)=  0.00000000
 Iteration  1 RMS(Cart)=  0.00000000 RMS(Int)=  0.00000000
 ITry= 1 IFail=0 DXMaxC= 3.84D-02 DCOld= 1.00D+10 DXMaxT= 3.00D-01 DXLimC= 3.00D+00 Rises=F
 ClnCor:  largest displacement from symmetrization is 2.80D-15 for atom     1.
 Variable       Old X    -DE/DX   Delta X   Delta X   Delta X     New X
                                 (Linear)    (Quad)   (Total)
    R1        2.25323   0.01622   0.00000   0.01489   0.01489   2.26812
    R2        3.13877   0.02567   0.00000   0.06227   0.06227   3.20105
    A1        2.42601   0.09749   0.00000   0.00000   0.00000   2.42601
         Item               Value     Threshold  Converged?
 Maximum Force            0.025665     0.000450     NO 
 RMS     Force            0.021470     0.000300     NO 
 Maximum Displacement     0.038383     0.001800     NO 
 RMS     Displacement     0.032502     0.001200     NO 
 Predicted change in Energy=-9.236992D-04
 Lowest energy point so far.  Saving SCF results.
 GradGradGradGradGradGradGradGradGradGradGradGradGradGradGradGradGradGrad

 Leave Link  103 at Wed May  4 19:07:38 2022, MaxMem=   754974720 cpu:               0.0 elap:               0.0
 (Enter /opt/cluster/programs/g16-c.01/g16/l202.exe)
                          Input orientation:                          
 ---------------------------------------------------------------------
 Center     Atomic      Atomic             Coordinates (Angstroms)
 Number     Number       Type             X           Y           Z
 ---------------------------------------------------------------------
      1          7           0       -0.005376    0.000000   -1.835038
      2          6           0       -0.007167    0.000000   -0.634802
      3         16           0        1.102236    0.000000    0.645274
 ---------------------------------------------------------------------
                    Distance matrix (angstroms):
                    1          2          3
     1  N    0.000000
     2  C    1.200237   0.000000
     3  S    2.716386   1.693922   0.000000
 Stoichiometry    CNS(1-)
 Framework group  CS[SG(CNS)]
 Deg. of freedom     3
 Full point group                 CS      NOp   2
 RotChk:  IX=0 Diff= 8.15D-03
 Largest Abelian subgroup         CS      NOp   2
 Largest concise Abelian subgroup C1      NOp   1
                         Standard orientation:                         
 ---------------------------------------------------------------------
 Center     Atomic      Atomic             Coordinates (Angstroms)
 Number     Number       Type             X           Y           Z
 ---------------------------------------------------------------------
      1          7           0        0.993495    1.414181    0.000000
      2          6           0        0.000000    0.740729    0.000000
      3         16           0       -0.434654   -0.896478    0.000000
 ---------------------------------------------------------------------
 Rotational constants (GHZ):         239.1968174           6.4764764           6.3057425
 Leave Link  202 at Wed May  4 19:07:38 2022, MaxMem=   754974720 cpu:               0.2 elap:               0.1
 (Enter /opt/cluster/programs/g16-c.01/g16/l301.exe)
 Standard basis: Aug-CC-pVTZ (5D, 7F)
 Ernie: Thresh=  0.10000D-02 Tol=  0.10000D-05 Strict=F.
 Ernie:  19 primitive shells out of 124 were deleted.
 There are   114 symmetry adapted cartesian basis functions of A'  symmetry.
 There are    55 symmetry adapted cartesian basis functions of A"  symmetry.
 There are    93 symmetry adapted basis functions of A'  symmetry.
 There are    49 symmetry adapted basis functions of A"  symmetry.
   142 basis functions,   258 primitive gaussians,   169 cartesian basis functions
    15 alpha electrons       15 beta electrons
       nuclear repulsion energy        70.3263606353 Hartrees.
 IExCor=    0 DFT=F Ex=HF Corr=None ExCW=0 ScaHFX=  1.000000
 ScaDFX=  1.000000  1.000000  1.000000  1.000000 ScalE2=  1.000000  1.000000
 IRadAn=      5 IRanWt=     -1 IRanGd=            0 ICorTp=0 IEmpDi=  4
 NAtoms=    3 NActive=    3 NUniq=    3 SFac= 1.00D+00 NAtFMM=   60 NAOKFM=F Big=F
 Integral buffers will be    131072 words long.
 Raffenetti 1 integral format.
 Two-electron integral symmetry is turned on.
 Leave Link  301 at Wed May  4 19:07:39 2022, MaxMem=   754974720 cpu:               0.2 elap:               0.1
 (Enter /opt/cluster/programs/g16-c.01/g16/l302.exe)
 NPDir=0 NMtPBC=     1 NCelOv=     1 NCel=       1 NClECP=     1 NCelD=      1
         NCelK=      1 NCelE2=     1 NClLst=     1 CellRange=     0.0.
 One-electron integrals computed using PRISM.
 One-electron integral symmetry used in STVInt
 NBasis=   142 RedAO= T EigKep=  1.14D-04  NBF=    93    49
 NBsUse=   142 1.00D-06 EigRej= -1.00D+00 NBFU=    93    49
 Leave Link  302 at Wed May  4 19:07:39 2022, MaxMem=   754974720 cpu:               0.7 elap:               0.2
 (Enter /opt/cluster/programs/g16-c.01/g16/l303.exe)
 DipDrv:  MaxL=1.
 Leave Link  303 at Wed May  4 19:07:39 2022, MaxMem=   754974720 cpu:               0.6 elap:               0.3
 (Enter /opt/cluster/programs/g16-c.01/g16/l401.exe)
 Initial guess from the checkpoint file:  "gaussian_10_scn.chk"
 B after Tr=     0.000000   -0.000000    0.000000
         Rot=    0.999996    0.000000    0.000000   -0.002975 Ang=  -0.34 deg.
 Guess basis will be translated and rotated to current coordinates.
 JPrj=2 DoOrth=T DoCkMO=T.
 Initial guess orbital symmetries:
       Occupied  (A') (A') (A') (A') (A') (A") (A') (A') (A') (A')
                 (A') (A") (A') (A") (A')
       Virtual   (A') (A') (A') (A") (A') (A") (A') (A") (A') (A')
                 (A') (A') (A") (A') (A') (A") (A') (A') (A") (A')
                 (A") (A') (A') (A") (A') (A") (A') (A') (A') (A')
                 (A") (A") (A') (A') (A") (A') (A") (A') (A") (A')
                 (A') (A') (A") (A') (A') (A") (A') (A") (A') (A")
                 (A') (A') (A") (A') (A') (A") (A') (A") (A') (A')
                 (A') (A") (A') (A") (A') (A") (A') (A") (A') (A')
                 (A') (A") (A') (A") (A") (A') (A') (A') (A") (A")
                 (A') (A') (A") (A') (A") (A') (A') (A') (A") (A')
                 (A') (A") (A') (A") (A') (A') (A") (A') (A') (A")
                 (A') (A") (A') (A") (A') (A") (A') (A') (A') (A")
                 (A') (A') (A") (A') (A') (A") (A") (A') (A") (A')
                 (A") (A') (A') (A') (A') (A') (A')
 The electronic state of the initial guess is 1-A'.
 Generating alternative initial guess.
 ExpMin= 3.51D-02 ExpMax= 3.74D+05 ExpMxC= 1.18D+03 IAcc=3 IRadAn=         5 AccDes= 0.00D+00
 Harris functional with IExCor=  205 and IRadAn=       5 diagonalized for initial guess.
 HarFok:  IExCor=  205 AccDes= 0.00D+00 IRadAn=         5 IDoV= 1 UseB2=F ITyADJ=14
 ICtDFT=  3500011 ScaDFX=  1.000000  1.000000  1.000000  1.000000
 FoFCou: FMM=F IPFlag=           0 FMFlag=      100000 FMFlg1=           0
         NFxFlg=           0 DoJE=T BraDBF=F KetDBF=T FulRan=T
         wScrn=  0.000000 ICntrl=       500 IOpCl=  0 I1Cent=   200000004 NGrid=           0
         NMat0=    1 NMatS0=      1 NMatT0=    0 NMatD0=    1 NMtDS0=    0 NMtDT0=    0
 Petite list used in FoFCou.
 Harris En= -489.730035949822    
 Leave Link  401 at Wed May  4 19:07:40 2022, MaxMem=   754974720 cpu:               1.8 elap:               0.5
 (Enter /opt/cluster/programs/g16-c.01/g16/l502.exe)
 Keep R1 ints in memory in symmetry-blocked form, NReq=77616006.
 FoFCou: FMM=F IPFlag=           0 FMFlag=           0 FMFlg1=           0
         NFxFlg=           0 DoJE=F BraDBF=F KetDBF=F FulRan=T
         wScrn=  0.000000 ICntrl=       600 IOpCl=  0 I1Cent=           0 NGrid=           0
         NMat0=    1 NMatS0=  10153 NMatT0=    0 NMatD0=    1 NMtDS0=    0 NMtDT0=    0
 Petite list used in FoFCou.
 Closed shell SCF:
 Using DIIS extrapolation, IDIIS=  1040.
 NGot=   754974720 LenX=   728846748 LenY=   728817746
 Requested convergence on RMS density matrix=1.00D-08 within 200 cycles.
 Requested convergence on MAX density matrix=1.00D-06.
 Requested convergence on             energy=1.00D-06.
 No special actions if energy rises.

 Cycle   1  Pass 1  IDiag  1:
 E= -489.906147307509    
 DIIS: error= 1.41D-03 at cycle   1 NSaved=   1.
 NSaved= 1 IEnMin= 1 EnMin= -489.906147307509     IErMin= 1 ErrMin= 1.41D-03
 ErrMax= 1.41D-03  0.00D+00 EMaxC= 1.00D-01 BMatC= 2.80D-04 BMatP= 2.80D-04
 IDIUse=3 WtCom= 9.86D-01 WtEn= 1.41D-02
 Coeff-Com:  0.100D+01
 Coeff-En:   0.100D+01
 Coeff:      0.100D+01
 Gap=     0.313 Goal=   None    Shift=    0.000
 GapD=    0.313 DampG=1.000 DampE=1.000 DampFc=1.0000 IDamp=-1.
 RMSDP=1.60D-04 MaxDP=3.75D-03              OVMax= 5.70D-03

 Cycle   2  Pass 1  IDiag  1:
 E= -489.906482278822     Delta-E=       -0.000334971313 Rises=F Damp=F
 DIIS: error= 7.80D-04 at cycle   2 NSaved=   2.
 NSaved= 2 IEnMin= 2 EnMin= -489.906482278822     IErMin= 2 ErrMin= 7.80D-04
 ErrMax= 7.80D-04  0.00D+00 EMaxC= 1.00D-01 BMatC= 3.77D-05 BMatP= 2.80D-04
 IDIUse=3 WtCom= 9.92D-01 WtEn= 7.80D-03
 Coeff-Com:  0.118D+00 0.882D+00
 Coeff-En:   0.000D+00 0.100D+01
 Coeff:      0.118D+00 0.882D+00
 Gap=     0.304 Goal=   None    Shift=    0.000
 RMSDP=5.46D-05 MaxDP=1.30D-03 DE=-3.35D-04 OVMax= 2.90D-03

 Cycle   3  Pass 1  IDiag  1:
 E= -489.906527544476     Delta-E=       -0.000045265654 Rises=F Damp=F
 DIIS: error= 5.28D-04 at cycle   3 NSaved=   3.
 NSaved= 3 IEnMin= 3 EnMin= -489.906527544476     IErMin= 3 ErrMin= 5.28D-04
 ErrMax= 5.28D-04  0.00D+00 EMaxC= 1.00D-01 BMatC= 1.21D-05 BMatP= 3.77D-05
 IDIUse=3 WtCom= 9.95D-01 WtEn= 5.28D-03
 Coeff-Com: -0.778D-01 0.295D+00 0.783D+00
 Coeff-En:   0.000D+00 0.000D+00 0.100D+01
 Coeff:     -0.774D-01 0.293D+00 0.784D+00
 Gap=     0.304 Goal=   None    Shift=    0.000
 RMSDP=1.96D-05 MaxDP=4.77D-04 DE=-4.53D-05 OVMax= 1.50D-03

 Cycle   4  Pass 1  IDiag  1:
 E= -489.906543362823     Delta-E=       -0.000015818347 Rises=F Damp=F
 DIIS: error= 1.51D-04 at cycle   4 NSaved=   4.
 NSaved= 4 IEnMin= 4 EnMin= -489.906543362823     IErMin= 4 ErrMin= 1.51D-04
 ErrMax= 1.51D-04  0.00D+00 EMaxC= 1.00D-01 BMatC= 1.44D-06 BMatP= 1.21D-05
 IDIUse=3 WtCom= 9.98D-01 WtEn= 1.51D-03
 Coeff-Com: -0.321D-01-0.255D-01 0.219D+00 0.838D+00
 Coeff-En:   0.000D+00 0.000D+00 0.000D+00 0.100D+01
 Coeff:     -0.320D-01-0.254D-01 0.219D+00 0.839D+00
 Gap=     0.303 Goal=   None    Shift=    0.000
 RMSDP=1.12D-05 MaxDP=2.41D-04 DE=-1.58D-05 OVMax= 7.61D-04

 Cycle   5  Pass 1  IDiag  1:
 E= -489.906546259269     Delta-E=       -0.000002896446 Rises=F Damp=F
 DIIS: error= 5.55D-05 at cycle   5 NSaved=   5.
 NSaved= 5 IEnMin= 5 EnMin= -489.906546259269     IErMin= 5 ErrMin= 5.55D-05
 ErrMax= 5.55D-05  0.00D+00 EMaxC= 1.00D-01 BMatC= 2.41D-07 BMatP= 1.44D-06
 IDIUse=1 WtCom= 1.00D+00 WtEn= 0.00D+00
 Coeff-Com:  0.152D-01-0.682D-01-0.150D+00 0.919D-01 0.111D+01
 Coeff:      0.152D-01-0.682D-01-0.150D+00 0.919D-01 0.111D+01
 Gap=     0.303 Goal=   None    Shift=    0.000
 RMSDP=7.53D-06 MaxDP=1.87D-04 DE=-2.90D-06 OVMax= 4.89D-04

 Cycle   6  Pass 1  IDiag  1:
 E= -489.906547028478     Delta-E=       -0.000000769209 Rises=F Damp=F
 DIIS: error= 1.35D-05 at cycle   6 NSaved=   6.
 NSaved= 6 IEnMin= 6 EnMin= -489.906547028478     IErMin= 6 ErrMin= 1.35D-05
 ErrMax= 1.35D-05  0.00D+00 EMaxC= 1.00D-01 BMatC= 1.95D-08 BMatP= 2.41D-07
 IDIUse=1 WtCom= 1.00D+00 WtEn= 0.00D+00
 Coeff-Com:  0.266D-02 0.810D-02-0.226D-01-0.804D-01-0.679D-01 0.116D+01
 Coeff:      0.266D-02 0.810D-02-0.226D-01-0.804D-01-0.679D-01 0.116D+01
 Gap=     0.304 Goal=   None    Shift=    0.000
 RMSDP=2.66D-06 MaxDP=7.89D-05 DE=-7.69D-07 OVMax= 1.74D-04

 Cycle   7  Pass 1  IDiag  1:
 E= -489.906547108353     Delta-E=       -0.000000079875 Rises=F Damp=F
 DIIS: error= 6.97D-06 at cycle   7 NSaved=   7.
 NSaved= 7 IEnMin= 7 EnMin= -489.906547108353     IErMin= 7 ErrMin= 6.97D-06
 ErrMax= 6.97D-06  0.00D+00 EMaxC= 1.00D-01 BMatC= 3.05D-09 BMatP= 1.95D-08
 IDIUse=1 WtCom= 1.00D+00 WtEn= 0.00D+00
 Coeff-Com: -0.183D-02 0.110D-01 0.147D-01-0.142D-01-0.172D+00 0.140D+00
 Coeff-Com:  0.102D+01
 Coeff:     -0.183D-02 0.110D-01 0.147D-01-0.142D-01-0.172D+00 0.140D+00
 Coeff:      0.102D+01
 Gap=     0.304 Goal=   None    Shift=    0.000
 RMSDP=1.06D-06 MaxDP=3.96D-05 DE=-7.99D-08 OVMax= 5.95D-05

 Cycle   8  Pass 1  IDiag  1:
 E= -489.906547117668     Delta-E=       -0.000000009315 Rises=F Damp=F
 DIIS: error= 1.84D-06 at cycle   8 NSaved=   8.
 NSaved= 8 IEnMin= 8 EnMin= -489.906547117668     IErMin= 8 ErrMin= 1.84D-06
 ErrMax= 1.84D-06  0.00D+00 EMaxC= 1.00D-01 BMatC= 2.36D-10 BMatP= 3.05D-09
 IDIUse=1 WtCom= 1.00D+00 WtEn= 0.00D+00
 Coeff-Com:  0.330D-03-0.349D-02-0.288D-02 0.120D-01 0.498D-01-0.117D+00
 Coeff-Com: -0.363D+00 0.142D+01
 Coeff:      0.330D-03-0.349D-02-0.288D-02 0.120D-01 0.498D-01-0.117D+00
 Coeff:     -0.363D+00 0.142D+01
 Gap=     0.304 Goal=   None    Shift=    0.000
 RMSDP=4.70D-07 MaxDP=2.02D-05 DE=-9.31D-09 OVMax= 2.47D-05

 Cycle   9  Pass 1  IDiag  1:
 E= -489.906547118792     Delta-E=       -0.000000001124 Rises=F Damp=F
 DIIS: error= 6.01D-07 at cycle   9 NSaved=   9.
 NSaved= 9 IEnMin= 9 EnMin= -489.906547118792     IErMin= 9 ErrMin= 6.01D-07
 ErrMax= 6.01D-07  0.00D+00 EMaxC= 1.00D-01 BMatC= 2.29D-11 BMatP= 2.36D-10
 IDIUse=1 WtCom= 1.00D+00 WtEn= 0.00D+00
 Coeff-Com:  0.943D-04-0.161D-03-0.790D-03-0.111D-02 0.417D-02 0.168D-01
 Coeff-Com:  0.101D-02-0.400D+00 0.138D+01
 Coeff:      0.943D-04-0.161D-03-0.790D-03-0.111D-02 0.417D-02 0.168D-01
 Coeff:      0.101D-02-0.400D+00 0.138D+01
 Gap=     0.304 Goal=   None    Shift=    0.000
 RMSDP=1.39D-07 MaxDP=5.35D-06 DE=-1.12D-09 OVMax= 8.70D-06

 Cycle  10  Pass 1  IDiag  1:
 E= -489.906547118917     Delta-E=       -0.000000000126 Rises=F Damp=F
 DIIS: error= 2.62D-07 at cycle  10 NSaved=  10.
 NSaved=10 IEnMin=10 EnMin= -489.906547118917     IErMin=10 ErrMin= 2.62D-07
 ErrMax= 2.62D-07  0.00D+00 EMaxC= 1.00D-01 BMatC= 2.86D-12 BMatP= 2.29D-11
 IDIUse=1 WtCom= 1.00D+00 WtEn= 0.00D+00
 Coeff-Com: -0.246D-04 0.256D-03 0.120D-03-0.711D-03-0.441D-02 0.842D-02
 Coeff-Com:  0.279D-01-0.757D-01-0.148D+00 0.119D+01
 Coeff:     -0.246D-04 0.256D-03 0.120D-03-0.711D-03-0.441D-02 0.842D-02
 Coeff:      0.279D-01-0.757D-01-0.148D+00 0.119D+01
 Gap=     0.304 Goal=   None    Shift=    0.000
 RMSDP=3.43D-08 MaxDP=8.39D-07 DE=-1.26D-10 OVMax= 3.00D-06

 Cycle  11  Pass 1  IDiag  1:
 E= -489.906547118932     Delta-E=       -0.000000000015 Rises=F Damp=F
 DIIS: error= 1.60D-07 at cycle  11 NSaved=  11.
 NSaved=11 IEnMin=11 EnMin= -489.906547118932     IErMin=11 ErrMin= 1.60D-07
 ErrMax= 1.60D-07  0.00D+00 EMaxC= 1.00D-01 BMatC= 8.03D-13 BMatP= 2.86D-12
 IDIUse=1 WtCom= 1.00D+00 WtEn= 0.00D+00
 Coeff-Com: -0.280D-05-0.690D-04 0.527D-04 0.487D-03 0.977D-03-0.517D-02
 Coeff-Com: -0.940D-02 0.756D-01-0.109D+00-0.549D+00 0.160D+01
 Coeff:     -0.280D-05-0.690D-04 0.527D-04 0.487D-03 0.977D-03-0.517D-02
 Coeff:     -0.940D-02 0.756D-01-0.109D+00-0.549D+00 0.160D+01
 Gap=     0.304 Goal=   None    Shift=    0.000
 RMSDP=1.98D-08 MaxDP=3.85D-07 DE=-1.48D-11 OVMax= 1.96D-06

 Cycle  12  Pass 1  IDiag  1:
 E= -489.906547118938     Delta-E=       -0.000000000006 Rises=F Damp=F
 DIIS: error= 8.27D-08 at cycle  12 NSaved=  12.
 NSaved=12 IEnMin=12 EnMin= -489.906547118938     IErMin=12 ErrMin= 8.27D-08
 ErrMax= 8.27D-08  0.00D+00 EMaxC= 1.00D-01 BMatC= 2.33D-13 BMatP= 8.03D-13
 IDIUse=1 WtCom= 1.00D+00 WtEn= 0.00D+00
 Coeff-Com:  0.116D-04-0.525D-04-0.871D-04 0.305D-04 0.892D-03-0.202D-04
 Coeff-Com: -0.233D-02-0.279D-01 0.156D+00-0.161D+00-0.952D+00 0.199D+01
 Coeff:      0.116D-04-0.525D-04-0.871D-04 0.305D-04 0.892D-03-0.202D-04
 Coeff:     -0.233D-02-0.279D-01 0.156D+00-0.161D+00-0.952D+00 0.199D+01
 Gap=     0.304 Goal=   None    Shift=    0.000
 RMSDP=1.65D-08 MaxDP=3.59D-07 DE=-6.25D-12 OVMax= 1.56D-06

 Cycle  13  Pass 1  IDiag  1:
 E= -489.906547118941     Delta-E=       -0.000000000003 Rises=F Damp=F
 DIIS: error= 1.56D-08 at cycle  13 NSaved=  13.
 NSaved=13 IEnMin=13 EnMin= -489.906547118941     IErMin=13 ErrMin= 1.56D-08
 ErrMax= 1.56D-08  0.00D+00 EMaxC= 1.00D-01 BMatC= 1.09D-14 BMatP= 2.33D-13
 IDIUse=1 WtCom= 1.00D+00 WtEn= 0.00D+00
 Coeff-Com: -0.215D-05 0.184D-04 0.935D-05-0.434D-04-0.327D-03 0.694D-03
 Coeff-Com:  0.106D-02-0.111D-02-0.259D-01 0.942D-01 0.710D-01-0.477D+00
 Coeff-Com:  0.134D+01
 Coeff:     -0.215D-05 0.184D-04 0.935D-05-0.434D-04-0.327D-03 0.694D-03
 Coeff:      0.106D-02-0.111D-02-0.259D-01 0.942D-01 0.710D-01-0.477D+00
 Coeff:      0.134D+01
 Gap=     0.304 Goal=   None    Shift=    0.000
 RMSDP=3.71D-09 MaxDP=1.13D-07 DE=-3.07D-12 OVMax= 2.15D-07

 SCF Done:  E(RHF) =  -489.906547119     A.U. after   13 cycles
            NFock= 13  Conv=0.37D-08     -V/T= 2.0005
 KE= 4.896648323804D+02 PE=-1.311102013622D+03 EE= 2.612042734872D+02
 Leave Link  502 at Wed May  4 19:07:43 2022, MaxMem=   754974720 cpu:              12.5 elap:               3.4
 (Enter /opt/cluster/programs/g16-c.01/g16/l801.exe)
 ExpMin= 3.51D-02 ExpMax= 3.74D+05 ExpMxC= 1.18D+03 IAcc=3 IRadAn=         5 AccDes= 0.00D+00
 HarFok:  IExCor=  205 AccDes= 0.00D+00 IRadAn=         5 IDoV=-2 UseB2=F ITyADJ=14
 ICtDFT= 12500011 ScaDFX=  1.000000  1.000000  1.000000  1.000000
 Largest valence mixing into a core orbital is  5.39D-04
 Largest core mixing into a valence orbital is  1.43D-04
 Range of M.O.s used for correlation:     8   142
 NBasis=   142 NAE=    15 NBE=    15 NFC=     7 NFV=     0
 NROrb=    135 NOA=     8 NOB=     8 NVA=   127 NVB=   127

 **** Warning!!: The largest alpha MO coefficient is  0.18435122D+02

 Leave Link  801 at Wed May  4 19:07:43 2022, MaxMem=   754974720 cpu:               0.4 elap:               0.1
 (Enter /opt/cluster/programs/g16-c.01/g16/l906.exe)
 Frozen-core derivative calculation, NFC=   7 NFV=   0.
 FulOut=F Deriv=T AODrv=T NAtomX=     3
   MMem=          74  MDisk=           8 MDiskD=           8
  W3Min=      359970 MinDsk=      723803 NBas6D=         169
 NBas2D=       14809    NTT=       14365    LW2=     3500000
    MDV=   754677592 MDiskM=       22268 NBas2p=       14801
 Fully direct method using O(ONN) memory.
 IMap=   1   2   3   4   5   6   7   8   9  10  11  12  13  14  15
 JobTyp=1 Pass  1:  I=   8 to  15 NPSUse=  4 ParTrn=T ParDer=T DoDerP=T.
 Spin components of T(2) and E(2):
     alpha-alpha T2 =       0.2968770121D-01 E2=     -0.6982138600D-01
     alpha-beta  T2 =       0.1583800896D+00 E2=     -0.3995264734D+00
     beta-beta   T2 =       0.2968770121D-01 E2=     -0.6982138600D-01
 The integrals were generated   1 times.
 ANorm=    0.1103519593D+01
 E2 =    -0.5391692454D+00 EUMP2 =    -0.49044571636432D+03
 Leave Link  906 at Wed May  4 19:07:52 2022, MaxMem=   754974720 cpu:              33.2 elap:               9.3
 (Enter /opt/cluster/programs/g16-c.01/g16/l1002.exe)
 Minotr:  Closed shell wavefunction.
          Computing MP2/KS-MP2 derivatives.
          Using Z-Vector for PSCF gradient.
          Skipping F1 and S1 gradient terms here.
          IDoAtm=111
          Frozen-core window.
          Direct CPHF calculation.
          Differentiating once with respect to electric field.
                with respect to dipole field.
          Differentiating once with respect to nuclear coordinates.
          Using symmetry in CPHF.
          Requested convergence is 1.0D-10 RMS, and 1.0D-09 maximum.
          NewPWx=F KeepS1=T KeepF1=T KeepIn=T MapXYZ=F SortEE=F KeepMc=T.
 Keep R1 ints in memory in symmetry-blocked form, NReq=77616884.
 FoFCou: FMM=F IPFlag=           0 FMFlag=           0 FMFlg1=           0
         NFxFlg=           0 DoJE=F BraDBF=F KetDBF=F FulRan=T
         wScrn=  0.000000 ICntrl=       600 IOpCl=  0 I1Cent=           0 NGrid=           0
         NMat0=    1 NMatS0=  10153 NMatT0=    0 NMatD0=    1 NMtDS0=    0 NMtDT0=    0
 Petite list used in FoFCou.
          MDV=     754974720 using IRadAn=       5.
          Solving linear equations separately, MaxMat=       0.
          There are     1 degrees of freedom in the 1st order CPHF.  IDoFFX=0 NUNeed=     1.
 LinEq1:  Iter=  0 NonCon=     1 RMS=5.20D-03 Max=9.62D-02 NDo=     1
 AX will form     1 AO Fock derivatives at one time.
 LinEq1:  Iter=  1 NonCon=     1 RMS=1.84D-03 Max=1.86D-02 NDo=     1
 LinEq1:  Iter=  2 NonCon=     1 RMS=7.58D-04 Max=1.12D-02 NDo=     1
 LinEq1:  Iter=  3 NonCon=     1 RMS=3.93D-04 Max=4.32D-03 NDo=     1
 LinEq1:  Iter=  4 NonCon=     1 RMS=2.40D-04 Max=6.60D-03 NDo=     1
 LinEq1:  Iter=  5 NonCon=     1 RMS=8.52D-05 Max=8.60D-04 NDo=     1
 LinEq1:  Iter=  6 NonCon=     1 RMS=2.28D-05 Max=2.63D-04 NDo=     1
 LinEq1:  Iter=  7 NonCon=     1 RMS=5.76D-06 Max=5.95D-05 NDo=     1
 LinEq1:  Iter=  8 NonCon=     1 RMS=1.32D-06 Max=1.20D-05 NDo=     1
 LinEq1:  Iter=  9 NonCon=     1 RMS=3.83D-07 Max=5.13D-06 NDo=     1
 LinEq1:  Iter= 10 NonCon=     1 RMS=8.64D-08 Max=8.36D-07 NDo=     1
 LinEq1:  Iter= 11 NonCon=     1 RMS=1.73D-08 Max=1.25D-07 NDo=     1
 LinEq1:  Iter= 12 NonCon=     1 RMS=3.71D-09 Max=5.41D-08 NDo=     1
 LinEq1:  Iter= 13 NonCon=     1 RMS=6.54D-10 Max=8.52D-09 NDo=     1
 LinEq1:  Iter= 14 NonCon=     1 RMS=1.09D-10 Max=1.33D-09 NDo=     1
 LinEq1:  Iter= 15 NonCon=     0 RMS=1.95D-11 Max=1.64D-10 NDo=     1
 Linear equations converged to 1.000D-10 1.000D-09 after    15 iterations.
 End of Minotr F.D. properties file   721 does not exist.
 End of Minotr F.D. properties file   722 does not exist.
 End of Minotr F.D. properties file   788 does not exist.
 Leave Link 1002 at Wed May  4 19:07:57 2022, MaxMem=   754974720 cpu:              14.8 elap:               4.1
 (Enter /opt/cluster/programs/g16-c.01/g16/l701.exe)
 ... and contract with generalized density number  2.
 Compute integral first derivatives.
 Leave Link  701 at Wed May  4 19:07:57 2022, MaxMem=   754974720 cpu:               0.7 elap:               0.2
 (Enter /opt/cluster/programs/g16-c.01/g16/l702.exe)
 L702 exits ... SP integral derivatives will be done elsewhere.
 Leave Link  702 at Wed May  4 19:07:57 2022, MaxMem=   754974720 cpu:               0.1 elap:               0.0
 (Enter /opt/cluster/programs/g16-c.01/g16/l703.exe)
 Integral derivatives from FoFJK, PRISM(SPDF).
 Compute integral first derivatives, UseDBF=F ICtDFT=           0.
 Calling FoFJK, ICntrl=  10002127 FMM=F ISym2X=1 I1Cent= 0 IOpClX= 0 NMat=1 NMatS=1 NMatT=0.
 FoFJK:  IHMeth= 1 ICntrl=10002127 DoSepK=F KAlg= 0 I1Cent=           0 FoldK=F
 IRaf=         0 NMat=       1 IRICut=       1 DoRegI=T DoRafI=F ISym2E= 1 IDoP0=0 IntGTp=1.
 FoFCou: FMM=F IPFlag=           0 FMFlag=      100000 FMFlg1=         800
         NFxFlg=           0 DoJE=F BraDBF=F KetDBF=F FulRan=T
         wScrn=  0.000000 ICntrl=  10002127 IOpCl=  0 I1Cent=           0 NGrid=           0
         NMat0=    1 NMatS0=      1 NMatT0=    0 NMatD0=    1 NMtDS0=    0 NMtDT0=    0
 Petite list used in FoFCou.
 Leave Link  703 at Wed May  4 19:08:01 2022, MaxMem=   754974720 cpu:              15.3 elap:               3.8
 (Enter /opt/cluster/programs/g16-c.01/g16/l716.exe)
 Dipole        =-2.08626061D-01-2.07770882D-01 0.00000000D+00
 ***** Axes restored to original set *****
 -------------------------------------------------------------------
 Center     Atomic                   Forces (Hartrees/Bohr)
 Number     Number              X              Y              Z
 -------------------------------------------------------------------
      1        7          -0.040569459   -0.000000000    0.000689585
      2        6           0.058747423   -0.000000000   -0.023605068
      3       16          -0.018177964   -0.000000000    0.022915483
 -------------------------------------------------------------------
 Cartesian Forces:  Max     0.058747423 RMS     0.026895628
 Leave Link  716 at Wed May  4 19:08:01 2022, MaxMem=   754974720 cpu:               0.2 elap:               0.1
 (Enter /opt/cluster/programs/g16-c.01/g16/l103.exe)

 GradGradGradGradGradGradGradGradGradGradGradGradGradGradGradGradGradGrad
 Berny optimization.
 Using GEDIIS/GDIIS optimizer.
 FormGI is forming the generalized inverse of G from B-inverse, IUseBI=4.
 Internal  Forces:  Max     0.092013953 RMS     0.053217841
 Search for a local minimum.
 Step number   2 out of a maximum of   20
 All quantities printed in internal units (Hartrees-Bohrs-Radians)
 RMS Force = .38632D-02 SwitMx=.10000D-02 MixMth= 1
 Mixed Optimization -- RFO/linear search
 Update second derivatives using D2CorX and points    1    2
 DE= -1.06D-03 DEPred=-9.24D-04 R= 1.15D+00
 TightC=F SS=  1.41D+00  RLast= 6.40D-02 DXNew= 5.0454D-01 1.9209D-01
 Trust test= 1.15D+00 RLast= 6.40D-02 DXMaxT set to 3.00D-01
 The second derivative matrix:
                          R1        R2        A1
           R1           1.13472
           R2           0.00122   0.32495
           A1           0.06135   0.07321   0.26978
 ITU=  1  0
 Use linear search instead of GDIIS.
     Eigenvalues ---    0.32495   1.134721000.00000
 RFO step:  Lambda=-2.30062771D-05 EMin= 3.24945491D-01
 Quartic linear search produced a step of  0.23771.
 Iteration  1 RMS(Cart)=  0.00837738 RMS(Int)=  0.00000234
 Iteration  2 RMS(Cart)=  0.00000273 RMS(Int)=  0.00000000
 Iteration  3 RMS(Cart)=  0.00000000 RMS(Int)=  0.00000000
 Iteration  1 RMS(Cart)=  0.00000000 RMS(Int)=  0.00000000
 ITry= 1 IFail=0 DXMaxC= 9.95D-03 DCOld= 1.00D+10 DXMaxT= 3.00D-01 DXLimC= 3.00D+00 Rises=F
 ClnCor:  largest displacement from symmetrization is 6.30D-16 for atom     1.
 Variable       Old X    -DE/DX   Delta X   Delta X   Delta X     New X
                                 (Linear)    (Quad)   (Total)
    R1        2.26812  -0.00075   0.00354  -0.00411  -0.00057   2.26755
    R2        3.20105   0.00541   0.01480   0.00345   0.01825   3.21930
    A1        2.42601   0.09201   0.00000   0.00000   0.00000   2.42601
         Item               Value     Threshold  Converged?
 Maximum Force            0.005412     0.000450     NO 
 RMS     Force            0.003863     0.000300     NO 
 Maximum Displacement     0.009953     0.001800     NO 
 RMS     Displacement     0.008378     0.001200     NO 
 Predicted change in Energy=-4.490508D-05
 Lowest energy point so far.  Saving SCF results.
 GradGradGradGradGradGradGradGradGradGradGradGradGradGradGradGradGradGrad

 Leave Link  103 at Wed May  4 19:08:01 2022, MaxMem=   754974720 cpu:               0.0 elap:               0.0
 (Enter /opt/cluster/programs/g16-c.01/g16/l202.exe)
                          Input orientation:                          
 ---------------------------------------------------------------------
 Center     Atomic      Atomic             Coordinates (Angstroms)
 Number     Number       Type             X           Y           Z
 ---------------------------------------------------------------------
      1          7           0       -0.006652    0.000000   -1.837520
      2          6           0       -0.009255    0.000000   -0.637588
      3         16           0        1.105601    0.000000    0.650541
 ---------------------------------------------------------------------
                    Distance matrix (angstroms):
                    1          2          3
     1  N    0.000000
     2  C    1.199935   0.000000
     3  S    2.725354   1.703578   0.000000
 Stoichiometry    CNS(1-)
 Framework group  CS[SG(CNS)]
 Deg. of freedom     3
 Full point group                 CS      NOp   2
 RotChk:  IX=0 Diff= 3.66D-03
 Largest Abelian subgroup         CS      NOp   2
 Largest concise Abelian subgroup C1      NOp   1
                         Standard orientation:                         
 ---------------------------------------------------------------------
 Center     Atomic      Atomic             Coordinates (Angstroms)
 Number     Number       Type             X           Y           Z
 ---------------------------------------------------------------------
      1          7           0        0.991954    1.421102    0.000000
      2          6           0        0.000000    0.745921    0.000000
      3         16           0       -0.433980   -0.901453    0.000000
 ---------------------------------------------------------------------
 Rotational constants (GHZ):         238.3847915           6.4283113           6.2595165
 Leave Link  202 at Wed May  4 19:08:01 2022, MaxMem=   754974720 cpu:               0.0 elap:               0.0
 (Enter /opt/cluster/programs/g16-c.01/g16/l301.exe)
 Standard basis: Aug-CC-pVTZ (5D, 7F)
 Ernie: Thresh=  0.10000D-02 Tol=  0.10000D-05 Strict=F.
 Ernie:  19 primitive shells out of 124 were deleted.
 There are   114 symmetry adapted cartesian basis functions of A'  symmetry.
 There are    55 symmetry adapted cartesian basis functions of A"  symmetry.
 There are    93 symmetry adapted basis functions of A'  symmetry.
 There are    49 symmetry adapted basis functions of A"  symmetry.
   142 basis functions,   258 primitive gaussians,   169 cartesian basis functions
    15 alpha electrons       15 beta electrons
       nuclear repulsion energy        70.0892340087 Hartrees.
 IExCor=    0 DFT=F Ex=HF Corr=None ExCW=0 ScaHFX=  1.000000
 ScaDFX=  1.000000  1.000000  1.000000  1.000000 ScalE2=  1.000000  1.000000
 IRadAn=      5 IRanWt=     -1 IRanGd=            0 ICorTp=0 IEmpDi=  4
 NAtoms=    3 NActive=    3 NUniq=    3 SFac= 1.00D+00 NAtFMM=   60 NAOKFM=F Big=F
 Integral buffers will be    131072 words long.
 Raffenetti 1 integral format.
 Two-electron integral symmetry is turned on.
 Leave Link  301 at Wed May  4 19:08:01 2022, MaxMem=   754974720 cpu:               0.2 elap:               0.1
 (Enter /opt/cluster/programs/g16-c.01/g16/l302.exe)
 NPDir=0 NMtPBC=     1 NCelOv=     1 NCel=       1 NClECP=     1 NCelD=      1
         NCelK=      1 NCelE2=     1 NClLst=     1 CellRange=     0.0.
 One-electron integrals computed using PRISM.
 One-electron integral symmetry used in STVInt
 NBasis=   142 RedAO= T EigKep=  1.16D-04  NBF=    93    49
 NBsUse=   142 1.00D-06 EigRej= -1.00D+00 NBFU=    93    49
 Leave Link  302 at Wed May  4 19:08:01 2022, MaxMem=   754974720 cpu:               0.6 elap:               0.2
 (Enter /opt/cluster/programs/g16-c.01/g16/l303.exe)
 DipDrv:  MaxL=1.
 Leave Link  303 at Wed May  4 19:08:01 2022, MaxMem=   754974720 cpu:               0.2 elap:               0.0
 (Enter /opt/cluster/programs/g16-c.01/g16/l401.exe)
 Initial guess from the checkpoint file:  "gaussian_10_scn.chk"
 B after Tr=    -0.000000   -0.000000    0.000000
         Rot=    0.999999   -0.000000   -0.000000   -0.001338 Ang=  -0.15 deg.
 Guess basis will be translated and rotated to current coordinates.
 JPrj=2 DoOrth=T DoCkMO=T.
 Initial guess orbital symmetries:
       Occupied  (A') (A') (A') (A') (A') (A") (A') (A') (A') (A')
                 (A') (A") (A') (A") (A')
       Virtual   (A') (A') (A') (A") (A') (A") (A') (A") (A') (A')
                 (A') (A') (A") (A') (A') (A") (A') (A') (A") (A')
                 (A") (A') (A') (A") (A') (A") (A') (A') (A') (A')
                 (A") (A") (A') (A') (A") (A') (A") (A') (A") (A')
                 (A') (A') (A") (A') (A') (A") (A') (A") (A') (A")
                 (A') (A') (A") (A') (A') (A") (A') (A") (A') (A')
                 (A') (A") (A") (A') (A') (A") (A') (A') (A") (A')
                 (A') (A") (A') (A") (A") (A') (A') (A') (A") (A')
                 (A") (A') (A") (A') (A') (A") (A') (A') (A") (A')
                 (A') (A") (A') (A") (A') (A') (A") (A') (A') (A")
                 (A') (A") (A') (A") (A') (A") (A') (A') (A') (A")
                 (A') (A') (A") (A') (A') (A") (A") (A') (A") (A')
                 (A') (A") (A') (A') (A') (A') (A')
 The electronic state of the initial guess is 1-A'.
 Leave Link  401 at Wed May  4 19:08:01 2022, MaxMem=   754974720 cpu:               0.5 elap:               0.1
 (Enter /opt/cluster/programs/g16-c.01/g16/l502.exe)
 Keep R1 ints in memory in symmetry-blocked form, NReq=77616006.
 FoFCou: FMM=F IPFlag=           0 FMFlag=           0 FMFlg1=           0
         NFxFlg=           0 DoJE=F BraDBF=F KetDBF=F FulRan=T
         wScrn=  0.000000 ICntrl=       600 IOpCl=  0 I1Cent=           0 NGrid=           0
         NMat0=    1 NMatS0=  10153 NMatT0=    0 NMatD0=    1 NMtDS0=    0 NMtDT0=    0
 Petite list used in FoFCou.
 Closed shell SCF:
 Using DIIS extrapolation, IDIIS=  1040.
 NGot=   754974720 LenX=   728846748 LenY=   728817746
 Requested convergence on RMS density matrix=1.00D-08 within 200 cycles.
 Requested convergence on MAX density matrix=1.00D-06.
 Requested convergence on             energy=1.00D-06.
 No special actions if energy rises.

 Cycle   1  Pass 1  IDiag  1:
 E= -489.906801690146    
 DIIS: error= 4.29D-04 at cycle   1 NSaved=   1.
 NSaved= 1 IEnMin= 1 EnMin= -489.906801690146     IErMin= 1 ErrMin= 4.29D-04
 ErrMax= 4.29D-04  0.00D+00 EMaxC= 1.00D-01 BMatC= 1.96D-05 BMatP= 1.96D-05
 IDIUse=3 WtCom= 9.96D-01 WtEn= 4.29D-03
 Coeff-Com:  0.100D+01
 Coeff-En:   0.100D+01
 Coeff:      0.100D+01
 Gap=     0.305 Goal=   None    Shift=    0.000
 RMSDP=4.01D-05 MaxDP=9.00D-04              OVMax= 1.62D-03

 Cycle   2  Pass 1  IDiag  1:
 E= -489.906830060440     Delta-E=       -0.000028370294 Rises=F Damp=F
 DIIS: error= 1.88D-04 at cycle   2 NSaved=   2.
 NSaved= 2 IEnMin= 2 EnMin= -489.906830060440     IErMin= 2 ErrMin= 1.88D-04
 ErrMax= 1.88D-04  0.00D+00 EMaxC= 1.00D-01 BMatC= 2.97D-06 BMatP= 1.96D-05
 IDIUse=3 WtCom= 9.98D-01 WtEn= 1.88D-03
 Coeff-Com:  0.965D-01 0.904D+00
 Coeff-En:   0.000D+00 0.100D+01
 Coeff:      0.963D-01 0.904D+00
 Gap=     0.304 Goal=   None    Shift=    0.000
 RMSDP=1.57D-05 MaxDP=3.39D-04 DE=-2.84D-05 OVMax= 8.04D-04

 Cycle   3  Pass 1  IDiag  1:
 E= -489.906833912636     Delta-E=       -0.000003852195 Rises=F Damp=F
 DIIS: error= 1.49D-04 at cycle   3 NSaved=   3.
 NSaved= 3 IEnMin= 3 EnMin= -489.906833912636     IErMin= 3 ErrMin= 1.49D-04
 ErrMax= 1.49D-04  0.00D+00 EMaxC= 1.00D-01 BMatC= 1.34D-06 BMatP= 2.97D-06
 IDIUse=3 WtCom= 9.99D-01 WtEn= 1.49D-03
 Coeff-Com: -0.996D-01 0.368D+00 0.732D+00
 Coeff-En:   0.000D+00 0.000D+00 0.100D+01
 Coeff:     -0.994D-01 0.367D+00 0.732D+00
 Gap=     0.304 Goal=   None    Shift=    0.000
 RMSDP=6.13D-06 MaxDP=1.30D-04 DE=-3.85D-06 OVMax= 4.91D-04

 Cycle   4  Pass 1  IDiag  1:
 E= -489.906835656912     Delta-E=       -0.000001744276 Rises=F Damp=F
 DIIS: error= 4.99D-05 at cycle   4 NSaved=   4.
 NSaved= 4 IEnMin= 4 EnMin= -489.906835656912     IErMin= 4 ErrMin= 4.99D-05
 ErrMax= 4.99D-05  0.00D+00 EMaxC= 1.00D-01 BMatC= 1.00D-07 BMatP= 1.34D-06
 IDIUse=1 WtCom= 1.00D+00 WtEn= 0.00D+00
 Coeff-Com: -0.170D-01-0.733D-01 0.782D-01 0.101D+01
 Coeff:     -0.170D-01-0.733D-01 0.782D-01 0.101D+01
 Gap=     0.304 Goal=   None    Shift=    0.000
 RMSDP=3.78D-06 MaxDP=8.70D-05 DE=-1.74D-06 OVMax= 2.95D-04

 Cycle   5  Pass 1  IDiag  1:
 E= -489.906835979746     Delta-E=       -0.000000322834 Rises=F Damp=F
 DIIS: error= 1.53D-05 at cycle   5 NSaved=   5.
 NSaved= 5 IEnMin= 5 EnMin= -489.906835979746     IErMin= 5 ErrMin= 1.53D-05
 ErrMax= 1.53D-05  0.00D+00 EMaxC= 1.00D-01 BMatC= 2.17D-08 BMatP= 1.00D-07
 IDIUse=1 WtCom= 1.00D+00 WtEn= 0.00D+00
 Coeff-Com:  0.164D-01-0.691D-01-0.136D+00 0.854D-01 0.110D+01
 Coeff:      0.164D-01-0.691D-01-0.136D+00 0.854D-01 0.110D+01
 Gap=     0.304 Goal=   None    Shift=    0.000
 RMSDP=2.24D-06 MaxDP=5.52D-05 DE=-3.23D-07 OVMax= 1.78D-04

 Cycle   6  Pass 1  IDiag  1:
 E= -489.906836059655     Delta-E=       -0.000000079908 Rises=F Damp=F
 DIIS: error= 5.71D-06 at cycle   6 NSaved=   6.
 NSaved= 6 IEnMin= 6 EnMin= -489.906836059655     IErMin= 6 ErrMin= 5.71D-06
 ErrMax= 5.71D-06  0.00D+00 EMaxC= 1.00D-01 BMatC= 2.57D-09 BMatP= 2.17D-08
 IDIUse=1 WtCom= 1.00D+00 WtEn= 0.00D+00
 Coeff-Com:  0.212D-02 0.161D-01-0.192D-01-0.154D+00-0.290D-01 0.118D+01
 Coeff:      0.212D-02 0.161D-01-0.192D-01-0.154D+00-0.290D-01 0.118D+01
 Gap=     0.304 Goal=   None    Shift=    0.000
 RMSDP=9.32D-07 MaxDP=2.50D-05 DE=-7.99D-08 OVMax= 6.36D-05

 Cycle   7  Pass 1  IDiag  1:
 E= -489.906836070629     Delta-E=       -0.000000010974 Rises=F Damp=F
 DIIS: error= 1.81D-06 at cycle   7 NSaved=   7.
 NSaved= 7 IEnMin= 7 EnMin= -489.906836070629     IErMin= 7 ErrMin= 1.81D-06
 ErrMax= 1.81D-06  0.00D+00 EMaxC= 1.00D-01 BMatC= 3.04D-10 BMatP= 2.57D-09
 IDIUse=1 WtCom= 1.00D+00 WtEn= 0.00D+00
 Coeff-Com: -0.191D-02 0.102D-01 0.123D-01-0.196D-01-0.121D+00 0.803D-01
 Coeff-Com:  0.104D+01
 Coeff:     -0.191D-02 0.102D-01 0.123D-01-0.196D-01-0.121D+00 0.803D-01
 Coeff:      0.104D+01
 Gap=     0.304 Goal=   None    Shift=    0.000
 RMSDP=2.68D-07 MaxDP=9.34D-06 DE=-1.10D-08 OVMax= 1.71D-05

 Cycle   8  Pass 1  IDiag  1:
 E= -489.906836071717     Delta-E=       -0.000000001089 Rises=F Damp=F
 DIIS: error= 1.08D-06 at cycle   8 NSaved=   8.
 NSaved= 8 IEnMin= 8 EnMin= -489.906836071717     IErMin= 8 ErrMin= 1.08D-06
 ErrMax= 1.08D-06  0.00D+00 EMaxC= 1.00D-01 BMatC= 5.33D-11 BMatP= 3.04D-10
 IDIUse=1 WtCom= 1.00D+00 WtEn= 0.00D+00
 Coeff-Com:  0.113D-03-0.404D-02 0.100D-02 0.224D-01 0.331D-01-0.185D+00
 Coeff-Com: -0.242D+00 0.137D+01
 Coeff:      0.113D-03-0.404D-02 0.100D-02 0.224D-01 0.331D-01-0.185D+00
 Coeff:     -0.242D+00 0.137D+01
 Gap=     0.304 Goal=   None    Shift=    0.000
 RMSDP=1.34D-07 MaxDP=3.65D-06 DE=-1.09D-09 OVMax= 8.90D-06

 Cycle   9  Pass 1  IDiag  1:
 E= -489.906836072033     Delta-E=       -0.000000000316 Rises=F Damp=F
 DIIS: error= 5.24D-07 at cycle   9 NSaved=   9.
 NSaved= 9 IEnMin= 9 EnMin= -489.906836072033     IErMin= 9 ErrMin= 5.24D-07
 ErrMax= 5.24D-07  0.00D+00 EMaxC= 1.00D-01 BMatC= 1.21D-11 BMatP= 5.33D-11
 IDIUse=1 WtCom= 1.00D+00 WtEn= 0.00D+00
 Coeff-Com:  0.311D-03-0.748D-03-0.226D-02-0.600D-02 0.148D-01 0.493D-01
 Coeff-Com: -0.111D+00-0.470D+00 0.153D+01
 Coeff:      0.311D-03-0.748D-03-0.226D-02-0.600D-02 0.148D-01 0.493D-01
 Coeff:     -0.111D+00-0.470D+00 0.153D+01
 Gap=     0.304 Goal=   None    Shift=    0.000
 RMSDP=6.63D-08 MaxDP=1.59D-06 DE=-3.16D-10 OVMax= 6.33D-06

 Cycle  10  Pass 1  IDiag  1:
 E= -489.906836072124     Delta-E=       -0.000000000091 Rises=F Damp=F
 DIIS: error= 2.83D-07 at cycle  10 NSaved=  10.
 NSaved=10 IEnMin=10 EnMin= -489.906836072124     IErMin=10 ErrMin= 2.83D-07
 ErrMax= 2.83D-07  0.00D+00 EMaxC= 1.00D-01 BMatC= 2.53D-12 BMatP= 1.21D-11
 IDIUse=1 WtCom= 1.00D+00 WtEn= 0.00D+00
 Coeff-Com: -0.219D-03 0.136D-02 0.136D-02-0.272D-02-0.139D-01 0.110D-01
 Coeff-Com:  0.117D+00-0.438D-01-0.824D+00 0.175D+01
 Coeff:     -0.219D-03 0.136D-02 0.136D-02-0.272D-02-0.139D-01 0.110D-01
 Coeff:      0.117D+00-0.438D-01-0.824D+00 0.175D+01
 Gap=     0.304 Goal=   None    Shift=    0.000
 RMSDP=5.52D-08 MaxDP=1.89D-06 DE=-9.13D-11 OVMax= 4.48D-06

 Cycle  11  Pass 1  IDiag  1:
 E= -489.906836072148     Delta-E=       -0.000000000024 Rises=F Damp=F
 DIIS: error= 8.97D-08 at cycle  11 NSaved=  11.
 NSaved=11 IEnMin=11 EnMin= -489.906836072148     IErMin=11 ErrMin= 8.97D-08
 ErrMax= 8.97D-08  0.00D+00 EMaxC= 1.00D-01 BMatC= 3.63D-13 BMatP= 2.53D-12
 IDIUse=1 WtCom= 1.00D+00 WtEn= 0.00D+00
 Coeff-Com:  0.167D-04-0.407D-03 0.103D-03 0.229D-02 0.248D-02-0.168D-01
 Coeff-Com: -0.204D-01 0.123D+00-0.140D-01-0.675D+00 0.160D+01
 Coeff:      0.167D-04-0.407D-03 0.103D-03 0.229D-02 0.248D-02-0.168D-01
 Coeff:     -0.204D-01 0.123D+00-0.140D-01-0.675D+00 0.160D+01
 Gap=     0.304 Goal=   None    Shift=    0.000
 RMSDP=2.49D-08 MaxDP=8.29D-07 DE=-2.43D-11 OVMax= 1.97D-06

 Cycle  12  Pass 1  IDiag  1:
 E= -489.906836072149     Delta-E=       -0.000000000001 Rises=F Damp=F
 DIIS: error= 2.15D-08 at cycle  12 NSaved=  12.
 NSaved=12 IEnMin=12 EnMin= -489.906836072149     IErMin=12 ErrMin= 2.15D-08
 ErrMax= 2.15D-08  0.00D+00 EMaxC= 1.00D-01 BMatC= 1.61D-14 BMatP= 3.63D-13
 IDIUse=1 WtCom= 1.00D+00 WtEn= 0.00D+00
 Coeff-Com:  0.125D-04-0.467D-04-0.868D-04-0.909D-04 0.577D-03 0.146D-02
 Coeff-Com: -0.560D-02-0.158D-01 0.702D-01-0.405D-01-0.273D+00 0.126D+01
 Coeff:      0.125D-04-0.467D-04-0.868D-04-0.909D-04 0.577D-03 0.146D-02
 Coeff:     -0.560D-02-0.158D-01 0.702D-01-0.405D-01-0.273D+00 0.126D+01
 Gap=     0.304 Goal=   None    Shift=    0.000
 RMSDP=3.67D-09 MaxDP=7.59D-08 DE=-9.09D-13 OVMax= 3.41D-07

 SCF Done:  E(RHF) =  -489.906836072     A.U. after   12 cycles
            NFock= 12  Conv=0.37D-08     -V/T= 2.0005
 KE= 4.896469291196D+02 PE=-1.310604819890D+03 EE= 2.609618206894D+02
 Leave Link  502 at Wed May  4 19:08:05 2022, MaxMem=   754974720 cpu:              12.6 elap:               3.4
 (Enter /opt/cluster/programs/g16-c.01/g16/l801.exe)
 ExpMin= 3.51D-02 ExpMax= 3.74D+05 ExpMxC= 1.18D+03 IAcc=3 IRadAn=         5 AccDes= 0.00D+00
 HarFok:  IExCor=  205 AccDes= 0.00D+00 IRadAn=         5 IDoV=-2 UseB2=F ITyADJ=14
 ICtDFT= 12500011 ScaDFX=  1.000000  1.000000  1.000000  1.000000
 Largest valence mixing into a core orbital is  5.40D-04
 Largest core mixing into a valence orbital is  1.45D-04
 Range of M.O.s used for correlation:     8   142
 NBasis=   142 NAE=    15 NBE=    15 NFC=     7 NFV=     0
 NROrb=    135 NOA=     8 NOB=     8 NVA=   127 NVB=   127

 **** Warning!!: The largest alpha MO coefficient is  0.18333470D+02

 Leave Link  801 at Wed May  4 19:08:05 2022, MaxMem=   754974720 cpu:               0.5 elap:               0.1
 (Enter /opt/cluster/programs/g16-c.01/g16/l906.exe)
 Frozen-core derivative calculation, NFC=   7 NFV=   0.
 FulOut=F Deriv=T AODrv=T NAtomX=     3
   MMem=          74  MDisk=           8 MDiskD=           8
[...]
 Coeff-Com:  0.150D+00-0.287D+00-0.672D-01 0.121D+01
 Coeff:     -0.206D-03 0.121D-02 0.178D-02-0.237D-04-0.219D-01 0.175D-01
 Coeff:      0.150D+00-0.287D+00-0.672D-01 0.121D+01
 Gap=     0.304 Goal=   None    Shift=    0.000
 RMSDP=9.01D-09 MaxDP=3.54D-07 DE=-5.68D-12 OVMax= 5.98D-07

 SCF Done:  E(RHF) =  -489.906972950     A.U. after   10 cycles
            NFock= 10  Conv=0.90D-08     -V/T= 2.0005
 KE= 4.896480419375D+02 PE=-1.310589089458D+03 EE= 2.609533063698D+02
 Leave Link  502 at Wed May  4 19:08:25 2022, MaxMem=   754974720 cpu:              12.1 elap:               3.2
 (Enter /opt/cluster/programs/g16-c.01/g16/l801.exe)
 ExpMin= 3.51D-02 ExpMax= 3.74D+05 ExpMxC= 1.18D+03 IAcc=3 IRadAn=         5 AccDes= 0.00D+00
 HarFok:  IExCor=  205 AccDes= 0.00D+00 IRadAn=         5 IDoV=-2 UseB2=F ITyADJ=14
 ICtDFT= 12500011 ScaDFX=  1.000000  1.000000  1.000000  1.000000
 Largest valence mixing into a core orbital is  5.40D-04
 Largest core mixing into a valence orbital is  1.45D-04
 Range of M.O.s used for correlation:     8   142
 NBasis=   142 NAE=    15 NBE=    15 NFC=     7 NFV=     0
 NROrb=    135 NOA=     8 NOB=     8 NVA=   127 NVB=   127

 **** Warning!!: The largest alpha MO coefficient is  0.18330562D+02

 Leave Link  801 at Wed May  4 19:08:25 2022, MaxMem=   754974720 cpu:               0.4 elap:               0.1
 (Enter /opt/cluster/programs/g16-c.01/g16/l906.exe)
 Frozen-core derivative calculation, NFC=   7 NFV=   0.
 FulOut=F Deriv=T AODrv=T NAtomX=     3
   MMem=          74  MDisk=           8 MDiskD=           8
  W3Min=      359970 MinDsk=      723803 NBas6D=         169
 NBas2D=       14809    NTT=       14365    LW2=     3500000
    MDV=   754677671 MDiskM=       22268 NBas2p=       14795
 Fully direct method using O(ONN) memory.
 IMap=   1   2   3   4   5   6   7   8   9  10  11  12  13  14  15
 JobTyp=1 Pass  1:  I=   8 to  15 NPSUse=  4 ParTrn=T ParDer=T DoDerP=T.
 Spin components of T(2) and E(2):
     alpha-alpha T2 =       0.2964022579D-01 E2=     -0.6970759976D-01
     alpha-beta  T2 =       0.1583580698D+00 E2=     -0.3993823935D+00
     beta-beta   T2 =       0.2964022579D-01 E2=     -0.6970759976D-01
 The integrals were generated   1 times.
 ANorm=    0.1103466593D+01
 E2 =    -0.5387975931D+00 EUMP2 =    -0.49044577054302D+03
 Leave Link  906 at Wed May  4 19:08:36 2022, MaxMem=   754974720 cpu:              33.7 elap:              10.4
 (Enter /opt/cluster/programs/g16-c.01/g16/l1002.exe)
 Minotr:  Closed shell wavefunction.
          Computing MP2/KS-MP2 derivatives.
          Using Z-Vector for PSCF gradient.
          Skipping F1 and S1 gradient terms here.
          IDoAtm=111
          Frozen-core window.
          Direct CPHF calculation.
          Differentiating once with respect to electric field.
                with respect to dipole field.
          Differentiating once with respect to nuclear coordinates.
          Using symmetry in CPHF.
          Requested convergence is 1.0D-10 RMS, and 1.0D-09 maximum.
          NewPWx=F KeepS1=T KeepF1=T KeepIn=T MapXYZ=F SortEE=F KeepMc=T.
 Keep R1 ints in memory in symmetry-blocked form, NReq=77616884.
 FoFCou: FMM=F IPFlag=           0 FMFlag=           0 FMFlg1=           0
         NFxFlg=           0 DoJE=F BraDBF=F KetDBF=F FulRan=T
         wScrn=  0.000000 ICntrl=       600 IOpCl=  0 I1Cent=           0 NGrid=           0
         NMat0=    1 NMatS0=  10153 NMatT0=    0 NMatD0=    1 NMtDS0=    0 NMtDT0=    0
 Petite list used in FoFCou.
          MDV=     754974720 using IRadAn=       5.
          Solving linear equations separately, MaxMat=       0.
          There are     1 degrees of freedom in the 1st order CPHF.  IDoFFX=0 NUNeed=     1.
 LinEq1:  Iter=  0 NonCon=     1 RMS=5.20D-03 Max=9.52D-02 NDo=     1
 AX will form     1 AO Fock derivatives at one time.
 LinEq1:  Iter=  1 NonCon=     1 RMS=1.83D-03 Max=1.89D-02 NDo=     1
 LinEq1:  Iter=  2 NonCon=     1 RMS=7.51D-04 Max=1.12D-02 NDo=     1
 LinEq1:  Iter=  3 NonCon=     1 RMS=3.93D-04 Max=4.26D-03 NDo=     1
 LinEq1:  Iter=  4 NonCon=     1 RMS=2.39D-04 Max=6.50D-03 NDo=     1
 LinEq1:  Iter=  5 NonCon=     1 RMS=8.49D-05 Max=8.60D-04 NDo=     1
 LinEq1:  Iter=  6 NonCon=     1 RMS=2.28D-05 Max=2.63D-04 NDo=     1
 LinEq1:  Iter=  7 NonCon=     1 RMS=5.78D-06 Max=6.00D-05 NDo=     1
 LinEq1:  Iter=  8 NonCon=     1 RMS=1.32D-06 Max=1.21D-05 NDo=     1
 LinEq1:  Iter=  9 NonCon=     1 RMS=3.85D-07 Max=5.00D-06 NDo=     1
 LinEq1:  Iter= 10 NonCon=     1 RMS=8.65D-08 Max=8.02D-07 NDo=     1
 LinEq1:  Iter= 11 NonCon=     1 RMS=1.72D-08 Max=1.25D-07 NDo=     1
 LinEq1:  Iter= 12 NonCon=     1 RMS=3.69D-09 Max=5.33D-08 NDo=     1
 LinEq1:  Iter= 13 NonCon=     1 RMS=6.38D-10 Max=8.04D-09 NDo=     1
 LinEq1:  Iter= 14 NonCon=     1 RMS=1.06D-10 Max=1.35D-09 NDo=     1
 LinEq1:  Iter= 15 NonCon=     0 RMS=1.88D-11 Max=1.56D-10 NDo=     1
 Linear equations converged to 1.000D-10 1.000D-09 after    15 iterations.
 End of Minotr F.D. properties file   721 does not exist.
 End of Minotr F.D. properties file   722 does not exist.
 End of Minotr F.D. properties file   788 does not exist.
 Leave Link 1002 at Wed May  4 19:08:40 2022, MaxMem=   754974720 cpu:              13.9 elap:               4.0
 (Enter /opt/cluster/programs/g16-c.01/g16/l701.exe)
 ... and contract with generalized density number  2.
 Compute integral first derivatives.
 Leave Link  701 at Wed May  4 19:08:41 2022, MaxMem=   754974720 cpu:               1.5 elap:               0.5
 (Enter /opt/cluster/programs/g16-c.01/g16/l702.exe)
 L702 exits ... SP integral derivatives will be done elsewhere.
 Leave Link  702 at Wed May  4 19:08:41 2022, MaxMem=   754974720 cpu:               0.1 elap:               0.1
 (Enter /opt/cluster/programs/g16-c.01/g16/l703.exe)
 Integral derivatives from FoFJK, PRISM(SPDF).
 Compute integral first derivatives, UseDBF=F ICtDFT=           0.
 Calling FoFJK, ICntrl=  10002127 FMM=F ISym2X=1 I1Cent= 0 IOpClX= 0 NMat=1 NMatS=1 NMatT=0.
 FoFJK:  IHMeth= 1 ICntrl=10002127 DoSepK=F KAlg= 0 I1Cent=           0 FoldK=F
 IRaf=         0 NMat=       1 IRICut=       1 DoRegI=T DoRafI=F ISym2E= 1 IDoP0=0 IntGTp=1.
 FoFCou: FMM=F IPFlag=           0 FMFlag=      100000 FMFlg1=         800
         NFxFlg=           0 DoJE=F BraDBF=F KetDBF=F FulRan=T
         wScrn=  0.000000 ICntrl=  10002127 IOpCl=  0 I1Cent=           0 NGrid=           0
         NMat0=    1 NMatS0=      1 NMatT0=    0 NMatD0=    1 NMtDS0=    0 NMtDT0=    0
 Petite list used in FoFCou.
 Leave Link  703 at Wed May  4 19:08:44 2022, MaxMem=   754974720 cpu:              14.1 elap:               3.5
 (Enter /opt/cluster/programs/g16-c.01/g16/l716.exe)
 Dipole        =-2.03098439D-01-1.96886758D-01 5.98800824D-31
 ***** Axes restored to original set *****
 -------------------------------------------------------------------
 Center     Atomic                   Forces (Hartrees/Bohr)
 Number     Number              X              Y              Z
 -------------------------------------------------------------------
      1        7          -0.039916687    0.000000000    0.000201806
      2        6           0.061162106   -0.000000000   -0.018572817
      3       16          -0.021245419    0.000000000    0.018371012
 -------------------------------------------------------------------
 Cartesian Forces:  Max     0.061162106 RMS     0.026807953
 Leave Link  716 at Wed May  4 19:08:44 2022, MaxMem=   754974720 cpu:               0.1 elap:               0.0
 (Enter /opt/cluster/programs/g16-c.01/g16/l103.exe)

 GradGradGradGradGradGradGradGradGradGradGradGradGradGradGradGradGradGrad
 Berny optimization.
 Using GEDIIS/GDIIS optimizer.
 FormGI is forming the generalized inverse of G from B-inverse, IUseBI=4.
 Internal  Forces:  Max     0.090466185 RMS     0.052230951
 Search for a local minimum.
 Step number   4 out of a maximum of   20
 All quantities printed in internal units (Hartrees-Bohrs-Radians)
 RMS Force = .20732D-03 SwitMx=.10000D-02 MixMth= 2
 Mixed Optimization -- En-DIIS/RFO-DIIS
 Swapping is turned off.
 Update second derivatives using D2CorX and points    1    2    3    4
 DE= -1.17D-06 DEPred=-1.00D-06 R= 1.17D+00
 TightC=F SS=  1.41D+00  RLast= 2.02D-03 DXNew= 5.0454D-01 6.0648D-03
 Trust test= 1.17D+00 RLast= 2.02D-03 DXMaxT set to 3.00D-01
 The second derivative matrix:
                          R1        R2        A1
           R1           0.92691
           R2           0.08203   0.28982
           A1           0.04575   0.09533   0.28175
 ITU=  1  1  1  0
     Eigenvalues ---    0.27943   0.937301000.00000
 En-DIIS/RFO-DIIS/Sim-DIIS IScMMF=       -3 using points:     4    3
 RFO step:  Lambda=-8.27776593D-06.
 NNeg= 0 NGDIIS= 2 SimSw=  2.50D-01 Rises=F DC= -1.17D-06 SmlDif=  1.00D-05
 NRisDI= 0 DoIntr=F SqrtH=F CThrHd= 10.0 CDAdj=  3.0
 RMS Error=  0.1957447342D-03 NUsed= 2 OKEnD=F EnDIS=F
 InvSVX:  RCond= 1.02D-06 Info=           0 Equed=N FErr=  1.14D-15 BErr=  0.00D+00
 DidBck=F Rises=F RFO-DIIS coefs:    1.11386   -0.11386
 Iteration  1 RMS(Cart)=  0.00013781 RMS(Int)=  0.00000000
 Iteration  2 RMS(Cart)=  0.00000000 RMS(Int)=  0.00000000
 Iteration  1 RMS(Cart)=  0.00000000 RMS(Int)=  0.00000000
 ITry= 1 IFail=0 DXMaxC= 1.87D-04 DCOld= 1.00D+10 DXMaxT= 3.00D-01 DXLimC= 3.00D+00 Rises=F
 ClnCor:  largest displacement from symmetrization is 2.41D-15 for atom     1.
 Variable       Old X    -DE/DX   Delta X   Delta X   Delta X     New X
                                 (Linear)    (Quad)   (Total)
    R1        2.26641  -0.00029  -0.00013  -0.00019  -0.00032   2.26609
    R2        3.22097  -0.00001   0.00019  -0.00013   0.00006   3.22102
    A1        2.42601   0.09047   0.00000   0.00000   0.00000   2.42601
         Item               Value     Threshold  Converged?
 Maximum Force            0.000293     0.000450     YES
 RMS     Force            0.000207     0.000300     YES
 Maximum Displacement     0.000187     0.001800     YES
 RMS     Displacement     0.000138     0.001200     YES
 Predicted change in Energy=-4.681765D-08
 Optimization completed.
    -- Stationary point found.
                           ----------------------------
                           !   Optimized Parameters   !
                           ! (Angstroms and Degrees)  !
 --------------------------                            --------------------------
 ! Name  Definition              Value          Derivative Info.                !
 --------------------------------------------------------------------------------
 ! R1    R(1,2)                  1.1993         -DE/DX =   -0.0003              !
 ! R2    R(2,3)                  1.7045         -DE/DX =    0.0                 !
 ! A1    A(1,2,3)              139.0            -DE/DX =    0.0905              !
 --------------------------------------------------------------------------------
 Lowest energy point so far.  Saving SCF results.
 Largest change from initial coordinates is atom    1       0.023 Angstoms.
 GradGradGradGradGradGradGradGradGradGradGradGradGradGradGradGradGradGrad

 Leave Link  103 at Wed May  4 19:08:44 2022, MaxMem=   754974720 cpu:               0.0 elap:               0.0
 (Enter /opt/cluster/programs/g16-c.01/g16/l202.exe)
                          Input orientation:                          
 ---------------------------------------------------------------------
 Center     Atomic      Atomic             Coordinates (Angstroms)
 Number     Number       Type             X           Y           Z
 ---------------------------------------------------------------------
      1          7           0       -0.006703   -0.000000   -1.837383
      2          6           0       -0.009444    0.000000   -0.638055
      3         16           0        1.105840   -0.000000    0.650871
 ---------------------------------------------------------------------
                    Distance matrix (angstroms):
                    1          2          3
     1  N    0.000000
     2  C    1.199331   0.000000
     3  S    2.725648   1.704461   0.000000
 Stoichiometry    CNS(1-)
 Framework group  CS[SG(CNS)]
 Deg. of freedom     3
 Full point group                 CS      NOp   2
 RotChk:  IX=0 Diff= 3.57D-15
 Largest Abelian subgroup         CS      NOp   2
 Largest concise Abelian subgroup C1      NOp   1
                         Standard orientation:                         
 ---------------------------------------------------------------------
 Center     Atomic      Atomic             Coordinates (Angstroms)
 Number     Number       Type             X           Y           Z
 ---------------------------------------------------------------------
      1          7           0        0.991234    1.421641   -0.000000
      2          6           0        0.000000    0.746474   -0.000000
      3         16           0       -0.433665   -0.901896    0.000000
 ---------------------------------------------------------------------
 Rotational constants (GHZ):         238.4652259           6.4259559           6.2573385
 Leave Link  202 at Wed May  4 19:08:44 2022, MaxMem=   754974720 cpu:               0.1 elap:               0.0
 (Enter /opt/cluster/programs/g16-c.01/g16/l601.exe)
 Copying SCF densities to generalized density rwf, IOpCl= 0 IROHF=0.

 **********************************************************************

            Population analysis using the SCF Density.

 **********************************************************************

 Orbital symmetries:
       Occupied  (A') (A') (A') (A') (A') (A") (A') (A') (A') (A')
                 (A') (A") (A') (A") (A')
       Virtual   (A') (A') (A') (A") (A') (A") (A') (A") (A') (A')
                 (A') (A') (A") (A') (A') (A") (A') (A') (A") (A')
                 (A") (A') (A') (A") (A') (A") (A') (A') (A') (A')
                 (A") (A") (A') (A') (A") (A') (A") (A') (A") (A')
                 (A') (A') (A") (A') (A') (A") (A') (A") (A') (A")
                 (A') (A') (A") (A') (A') (A") (A') (A") (A') (A')
                 (A') (A") (A") (A') (A') (A") (A') (A') (A") (A')
                 (A') (A") (A') (A") (A") (A') (A') (A') (A") (A')
                 (A") (A') (A") (A') (A') (A") (A') (A') (A") (A')
                 (A') (A") (A') (A") (A') (A') (A") (A') (A') (A")
                 (A') (A") (A') (A") (A') (A") (A') (A') (A') (A")
                 (A') (A') (A") (A') (A') (A") (A") (A') (A") (A')
                 (A') (A") (A') (A') (A') (A') (A')
 The electronic state is 1-A'.
 Alpha  occ. eigenvalues --  -91.72622 -15.37529 -11.10210  -8.72735  -6.40922
 Alpha  occ. eigenvalues --   -6.40669  -6.40656  -1.00527  -0.74769  -0.41861
 Alpha  occ. eigenvalues --   -0.33077  -0.30003  -0.29751  -0.13628  -0.12763
 Alpha virt. eigenvalues --    0.17664   0.19108   0.21740   0.23378   0.23900
 Alpha virt. eigenvalues --    0.24313   0.24751   0.28982   0.30139   0.30552
 Alpha virt. eigenvalues --    0.32524   0.37866   0.39202   0.42027   0.44653
 Alpha virt. eigenvalues --    0.46384   0.47037   0.53143   0.53569   0.54695
 Alpha virt. eigenvalues --    0.55781   0.59578   0.60553   0.63465   0.65528
 Alpha virt. eigenvalues --    0.69913   0.70179   0.74365   0.75282   0.77176
 Alpha virt. eigenvalues --    0.77534   0.80650   0.81001   0.87518   0.90289
 Alpha virt. eigenvalues --    0.93000   0.96230   0.96653   0.99793   1.01696
 Alpha virt. eigenvalues --    1.03001   1.07888   1.08039   1.14657   1.16182
 Alpha virt. eigenvalues --    1.17153   1.21390   1.24851   1.25328   1.27445
 Alpha virt. eigenvalues --    1.29384   1.34399   1.36521   1.38994   1.44303
 Alpha virt. eigenvalues --    1.49235   1.50675   1.54250   1.56259   1.60874
 Alpha virt. eigenvalues --    1.69989   1.75341   1.77104   1.77391   1.81992
 Alpha virt. eigenvalues --    1.89751   1.90021   2.02453   2.02713   2.05474
 Alpha virt. eigenvalues --    2.12801   2.15464   2.17183   2.26890   2.30088
 Alpha virt. eigenvalues --    2.30432   2.34168   2.37141   2.43391   2.46214
 Alpha virt. eigenvalues --    2.46749   2.54246   2.59234   2.60677   2.61222
 Alpha virt. eigenvalues --    2.61243   2.65171   2.70744   2.73418   2.80738
 Alpha virt. eigenvalues --    2.91146   2.94748   3.13645   3.23746   3.28758
 Alpha virt. eigenvalues --    3.61052   3.68694   3.71149   3.74320   3.74986
 Alpha virt. eigenvalues --    3.81171   3.90082   3.97668   3.98607   4.01028
 Alpha virt. eigenvalues --    4.05133   4.13294   4.23978   4.56938   4.67384
 Alpha virt. eigenvalues --    4.83732   4.86694   5.19283   5.19767   5.43962
 Alpha virt. eigenvalues --    5.46249   5.64300   5.66156   5.82220   5.83952
 Alpha virt. eigenvalues --    6.16349   6.18649   6.28359   6.31771   6.59375
 Alpha virt. eigenvalues --   11.90670  15.78081
          Condensed to atoms (all electrons):
               1          2          3
     1  N    6.894323   0.644099  -0.113095
     2  C    0.644099   5.142218   0.293484
     3  S   -0.113095   0.293484  16.314482
 Mulliken charges:
               1
     1  N   -0.425327
     2  C   -0.079801
     3  S   -0.494872
 Sum of Mulliken charges =  -1.00000
 Mulliken charges with hydrogens summed into heavy atoms:
               1
     1  N   -0.425327
     2  C   -0.079801
     3  S   -0.494872
 Electronic spatial extent (au):  <R**2>=            218.0845
 Charge=             -1.0000 electrons
 Dipole moment (field-independent basis, Debye):
    X=             -0.6064    Y=             -0.4698    Z=             -0.0000  Tot=              0.7671
 Quadrupole moment (field-independent basis, Debye-Ang):
   XX=            -33.1693   YY=            -36.5716   ZZ=            -29.5779
   XY=             -5.6109   XZ=              0.0000   YZ=              0.0000
 Traceless Quadrupole moment (field-independent basis, Debye-Ang):
   XX=             -0.0630   YY=             -3.4653   ZZ=              3.5283
   XY=             -5.6109   XZ=              0.0000   YZ=              0.0000
 Octapole moment (field-independent basis, Debye-Ang**2):
  XXX=              2.7646  YYY=            -11.6664  ZZZ=             -0.0000  XYY=             -6.4931
  XXY=             -1.6425  XXZ=              0.0000  XZZ=              1.3964  YZZ=              1.9672
  YYZ=              0.0000  XYZ=              0.0000
 Hexadecapole moment (field-independent basis, Debye-Ang**3):
 XXXX=           -112.9508 YYYY=           -236.2425 ZZZZ=            -47.2203 XXXY=            -56.5919
 XXXZ=              0.0000 YYYX=            -56.2015 YYYZ=              0.0000 ZZZX=              0.0000
 ZZZY=              0.0000 XXYY=            -64.1179 XXZZ=            -26.2647 YYZZ=            -47.8998
 XXYZ=              0.0000 YYXZ=              0.0000 ZZXY=            -17.3948
 N-N= 7.008076820122D+01 E-N=-1.310589090722D+03  KE= 4.896480419375D+02
 Symmetry A'   KE= 4.486245798570D+02
 Symmetry A"   KE= 4.102346208041D+01
 No NMR shielding tensors so no spin-rotation constants.
 Leave Link  601 at Wed May  4 19:08:44 2022, MaxMem=   754974720 cpu:               0.6 elap:               0.2
 (Enter /opt/cluster/programs/g16-c.01/g16/l9999.exe)
 Unable to Open any file for archive entry.
 1\1\GINC-NODE41\FOpt\RMP2-FC\Aug-CC-pVTZ\C1N1S1(1-)\TOEPFER\04-May-202
 2\0\\#P MP2/aug-cc-pVTZ scf(maxcycle=200) opt geom(AddGIC)\\Gaussian i
 nput\\-1,1\N,-0.0067026036,0.,-1.8373825669\C,-0.0094441091,0.,-0.6380
 550237\S,1.1058397659,0.,0.6508710526\\Version=ES64L-G16RevC.01\State=
 1-A'\HF=-489.9069729\MP2=-490.4457705\RMSD=9.009e-09\RMSF=2.681e-02\Di
 pole=0.0477528,0.,0.2788065\PG=CS [SG(C1N1S1)]\\@
 The archive entry for this job was punched.


 IN THE UNIVERSE THE DIFFICULT THINGS ARE DONE AS IF THEY WERE EASY.

                                                          -- LAO-TSU
 Job cpu time:       0 days  0 hours  5 minutes 49.0 seconds.
 Elapsed time:       0 days  0 hours  1 minutes 38.2 seconds.
 File lengths (MBytes):  RWF=     15 Int=      0 D2E=      0 Chk=      3 Scr=      1
 Normal termination of Gaussian 16 at Wed May  4 19:08:45 2022.
