 Entering Gaussian System, Link 0=/opt/cluster/programs/g16-c.01/g16/g16
 Input=/scratch/toepfer/jobs/tmp.5739920/gaussian_12_scn.com
 Output=/scratch/toepfer/jobs/tmp.5739920/gaussian_12_scn.out
 Initial command:
 /opt/cluster/programs/g16-c.01/g16/l1.exe "/scratch/toepfer/jobs/tmp.5739920/Gau-147833.inp" -scrdir="/scratch/toepfer/jobs/tmp.5739920/"
 Entering Link 1 = /opt/cluster/programs/g16-c.01/g16/l1.exe PID=    147834.
  
 Copyright (c) 1988-2019, Gaussian, Inc.  All Rights Reserved.
  
 This is part of the Gaussian(R) 16 program.  It is based on
 the Gaussian(R) 09 system (copyright 2009, Gaussian, Inc.),
 the Gaussian(R) 03 system (copyright 2003, Gaussian, Inc.),
 the Gaussian(R) 98 system (copyright 1998, Gaussian, Inc.),
 the Gaussian(R) 94 system (copyright 1995, Gaussian, Inc.),
 the Gaussian 92(TM) system (copyright 1992, Gaussian, Inc.),
 the Gaussian 90(TM) system (copyright 1990, Gaussian, Inc.),
 the Gaussian 88(TM) system (copyright 1988, Gaussian, Inc.),
 the Gaussian 86(TM) system (copyright 1986, Carnegie Mellon
 University), and the Gaussian 82(TM) system (copyright 1983,
 Carnegie Mellon University). Gaussian is a federally registered
 trademark of Gaussian, Inc.
  
 This software contains proprietary and confidential information,
 including trade secrets, belonging to Gaussian, Inc.
  
 This software is provided under written license and may be
 used, copied, transmitted, or stored only in accord with that
 written license.
  
 The following legend is applicable only to US Government
 contracts under FAR:
  
                    RESTRICTED RIGHTS LEGEND
  
 Use, reproduction and disclosure by the US Government is
 subject to restrictions as set forth in subparagraphs (a)
 and (c) of the Commercial Computer Software - Restricted
 Rights clause in FAR 52.227-19.
  
 Gaussian, Inc.
 340 Quinnipiac St., Bldg. 40, Wallingford CT 06492
  
  
 ---------------------------------------------------------------
 Warning -- This program may not be used in any manner that
 competes with the business of Gaussian, Inc. or will provide
 assistance to any competitor of Gaussian, Inc.  The licensee
 of this program is prohibited from giving any competitor of
 Gaussian, Inc. access to this program.  By using this program,
 the user acknowledges that Gaussian, Inc. is engaged in the
 business of creating and licensing software in the field of
 computational chemistry and represents and warrants to the
 licensee that it is not a competitor of Gaussian, Inc. and that
 it will not use this program in any manner prohibited above.
 ---------------------------------------------------------------
  

 Cite this work as:
 Gaussian 16, Revision C.01,
 M. J. Frisch, G. W. Trucks, H. B. Schlegel, G. E. Scuseria, 
 M. A. Robb, J. R. Cheeseman, G. Scalmani, V. Barone, 
 G. A. Petersson, H. Nakatsuji, X. Li, M. Caricato, A. V. Marenich, 
 J. Bloino, B. G. Janesko, R. Gomperts, B. Mennucci, H. P. Hratchian, 
 J. V. Ortiz, A. F. Izmaylov, J. L. Sonnenberg, D. Williams-Young, 
 F. Ding, F. Lipparini, F. Egidi, J. Goings, B. Peng, A. Petrone, 
 T. Henderson, D. Ranasinghe, V. G. Zakrzewski, J. Gao, N. Rega, 
 G. Zheng, W. Liang, M. Hada, M. Ehara, K. Toyota, R. Fukuda, 
 J. Hasegawa, M. Ishida, T. Nakajima, Y. Honda, O. Kitao, H. Nakai, 
 T. Vreven, K. Throssell, J. A. Montgomery, Jr., J. E. Peralta, 
 F. Ogliaro, M. J. Bearpark, J. J. Heyd, E. N. Brothers, K. N. Kudin, 
 V. N. Staroverov, T. A. Keith, R. Kobayashi, J. Normand, 
 K. Raghavachari, A. P. Rendell, J. C. Burant, S. S. Iyengar, 
 J. Tomasi, M. Cossi, J. M. Millam, M. Klene, C. Adamo, R. Cammi, 
 J. W. Ochterski, R. L. Martin, K. Morokuma, O. Farkas, 
 J. B. Foresman, and D. J. Fox, Gaussian, Inc., Wallingford CT, 2019.
 
 ******************************************
 Gaussian 16:  ES64L-G16RevC.01  3-Jul-2019
                 4-May-2022 
 ******************************************
 %nproc=4
 Will use up to    4 processors via shared memory.
 %mem=5760MB
 %chk=gaussian_12_scn.chk
 -----------------------------------------------------
 #P MP2/aug-cc-pVTZ scf(maxcycle=200) opt geom(AddGIC)
 -----------------------------------------------------
 1/18=20,19=15,38=1,145=903/1,3;
 2/9=110,12=2,17=6,18=5,40=1/2;
 3/5=16,6=1,7=10,11=9,25=1,30=1,71=1/1,2,3;
 4//1;
 5/5=2,7=200,38=5/2;
 8/6=4,10=1/1;
 9/15=2,16=-3/6;
 10/5=1/2;
 6/7=2,8=2,9=2,10=2/1;
 7/12=2/1,2,3,16;
 1/18=20,19=15,145=903/3(2);
 2/9=110/2;
 99//99;
 2/9=110/2;
 3/5=16,6=1,7=10,11=9,25=1,30=1,71=1/1,2,3;
 4/5=5,16=3,69=1/1;
 5/5=2,7=200,38=5/2;
 8/6=4,10=1/1;
 9/15=2,16=-3/6;
 10/5=1/2;
 7/12=2/1,2,3,16;
 1/18=20,19=15,145=903/3(-8);
 2/9=110/2;
 6/7=2,8=2,9=2,10=2/1;
 99/9=10/99;
 Leave Link    1 at Wed May  4 19:08:43 2022, MaxMem=   754974720 cpu:               0.1 elap:               0.1
 (Enter /opt/cluster/programs/g16-c.01/g16/l101.exe)
 --------------
 Gaussian input
 --------------
 Symbolic Z-matrix:
 Charge = -1 Multiplicity = 1
 N                     0.        0.       -1.82094 
 C                     0.        0.       -0.62859 
 S                     1.25355   0.        0.46111 
 
 Initializing the GIC definitions file.
 Number of initial coordinates =     3
 Number of input entries/lines =     1
 Number of additional coordinates =     0
 Number of removed coordinates =     0
 Number of frozen coordinates =     1
 Number of final active and frozen coordinates =     3
 ITRead=  0  0  0
 MicOpt= -1 -1 -1
 NAtoms=      3 NQM=        3 NQMF=       0 NMMI=      0 NMMIF=      0
                NMic=       0 NMicF=      0.
                    Isotopes and Nuclear Properties:
 (Nuclear quadrupole moments (NQMom) in fm**2, nuclear magnetic moments (NMagM)
  in nuclear magnetons)

  Atom         1           2           3
 IAtWgt=          14          12          32
 AtmWgt=  14.0030740  12.0000000  31.9720718
 NucSpn=           2           0           0
 AtZEff=  -0.0000000  -0.0000000  -0.0000000
 NQMom=    2.0440000   0.0000000   0.0000000
 NMagM=    0.4037610   0.0000000   0.0000000
 AtZNuc=   7.0000000   6.0000000  16.0000000
 Leave Link  101 at Wed May  4 19:08:44 2022, MaxMem=   754974720 cpu:               1.6 elap:               0.8
 (Enter /opt/cluster/programs/g16-c.01/g16/l103.exe)

 GradGradGradGradGradGradGradGradGradGradGradGradGradGradGradGradGradGrad
 Berny optimization.
 Initialization pass.
                           ----------------------------
                           !    Initial Parameters    !
                           ! (Angstroms and Degrees)  !
 --------------------------                            --------------------------
 ! Name  Definition              Value          Derivative Info.                !
 --------------------------------------------------------------------------------
 ! R1    R(1,2)                  1.1924         estimate D2E/DX2                !
 ! R2    R(2,3)                  1.661          estimate D2E/DX2                !
 ! A1    A(1,2,3)              131.0            Frozen                          !
 --------------------------------------------------------------------------------
 Trust Radius=3.00D-01 FncErr=1.00D-07 GrdErr=1.00D-07 EigMax=2.50D+02 EigMin=1.00D-04
 Number of steps in this run=     20 maximum allowed number of steps=    100.
 GradGradGradGradGradGradGradGradGradGradGradGradGradGradGradGradGradGrad

 Leave Link  103 at Wed May  4 19:08:44 2022, MaxMem=   754974720 cpu:               0.1 elap:               0.1
 (Enter /opt/cluster/programs/g16-c.01/g16/l202.exe)
                          Input orientation:                          
 ---------------------------------------------------------------------
 Center     Atomic      Atomic             Coordinates (Angstroms)
 Number     Number       Type             X           Y           Z
 ---------------------------------------------------------------------
      1          7           0        0.000000    0.000000   -1.820943
      2          6           0        0.000000    0.000000   -0.628586
      3         16           0        1.253548    0.000000    0.461107
 ---------------------------------------------------------------------
                    Distance matrix (angstroms):
                    1          2          3
     1  N    0.000000
     2  C    1.192357   0.000000
     3  S    2.603677   1.660968   0.000000
 Stoichiometry    CNS(1-)
 Framework group  CS[SG(CNS)]
 Deg. of freedom     3
 Full point group                 CS      NOp   2
 Largest Abelian subgroup         CS      NOp   2
 Largest concise Abelian subgroup C1      NOp   1
                         Standard orientation:                         
 ---------------------------------------------------------------------
 Center     Atomic      Atomic             Coordinates (Angstroms)
 Number     Number       Type             X           Y           Z
 ---------------------------------------------------------------------
      1          7           0        1.086055    1.251446   -0.000000
      2          6           0        0.000000    0.759307   -0.000000
      3         16           0       -0.475149   -0.832248    0.000000
 ---------------------------------------------------------------------
 Rotational constants (GHZ):         175.3884695           7.0340416           6.7628155
 Leave Link  202 at Wed May  4 19:08:44 2022, MaxMem=   754974720 cpu:               0.1 elap:               0.0
 (Enter /opt/cluster/programs/g16-c.01/g16/l301.exe)
 Standard basis: Aug-CC-pVTZ (5D, 7F)
 Ernie: Thresh=  0.10000D-02 Tol=  0.10000D-05 Strict=F.
 Ernie:  19 primitive shells out of 124 were deleted.
 There are   114 symmetry adapted cartesian basis functions of A'  symmetry.
 There are    55 symmetry adapted cartesian basis functions of A"  symmetry.
 There are    93 symmetry adapted basis functions of A'  symmetry.
 There are    49 symmetry adapted basis functions of A"  symmetry.
   142 basis functions,   258 primitive gaussians,   169 cartesian basis functions
    15 alpha electrons       15 beta electrons
       nuclear repulsion energy        71.9882372407 Hartrees.
 IExCor=    0 DFT=F Ex=HF Corr=None ExCW=0 ScaHFX=  1.000000
 ScaDFX=  1.000000  1.000000  1.000000  1.000000 ScalE2=  1.000000  1.000000
 IRadAn=      5 IRanWt=     -1 IRanGd=            0 ICorTp=0 IEmpDi=  4
 NAtoms=    3 NActive=    3 NUniq=    3 SFac= 1.00D+00 NAtFMM=   60 NAOKFM=F Big=F
 Integral buffers will be    131072 words long.
 Raffenetti 1 integral format.
 Two-electron integral symmetry is turned on.
 Leave Link  301 at Wed May  4 19:08:44 2022, MaxMem=   754974720 cpu:               0.2 elap:               0.1
 (Enter /opt/cluster/programs/g16-c.01/g16/l302.exe)
 NPDir=0 NMtPBC=     1 NCelOv=     1 NCel=       1 NClECP=     1 NCelD=      1
         NCelK=      1 NCelE2=     1 NClLst=     1 CellRange=     0.0.
 One-electron integrals computed using PRISM.
 One-electron integral symmetry used in STVInt
 NBasis=   142 RedAO= T EigKep=  1.10D-04  NBF=    93    49
 NBsUse=   142 1.00D-06 EigRej= -1.00D+00 NBFU=    93    49
 Leave Link  302 at Wed May  4 19:08:45 2022, MaxMem=   754974720 cpu:               1.7 elap:               0.8
 (Enter /opt/cluster/programs/g16-c.01/g16/l303.exe)
 DipDrv:  MaxL=1.
 Leave Link  303 at Wed May  4 19:08:45 2022, MaxMem=   754974720 cpu:               0.2 elap:               0.0
 (Enter /opt/cluster/programs/g16-c.01/g16/l401.exe)
 ExpMin= 3.51D-02 ExpMax= 3.74D+05 ExpMxC= 1.18D+03 IAcc=3 IRadAn=         5 AccDes= 0.00D+00
 Harris functional with IExCor=  205 and IRadAn=       5 diagonalized for initial guess.
 HarFok:  IExCor=  205 AccDes= 0.00D+00 IRadAn=         5 IDoV= 1 UseB2=F ITyADJ=14
 ICtDFT=  3500011 ScaDFX=  1.000000  1.000000  1.000000  1.000000
 FoFCou: FMM=F IPFlag=           0 FMFlag=      100000 FMFlg1=           0
         NFxFlg=           0 DoJE=T BraDBF=F KetDBF=T FulRan=T
         wScrn=  0.000000 ICntrl=       500 IOpCl=  0 I1Cent=   200000004 NGrid=           0
         NMat0=    1 NMatS0=      1 NMatT0=    0 NMatD0=    1 NMtDS0=    0 NMtDT0=    0
 Petite list used in FoFCou.
 Harris En= -489.719398917980    
 JPrj=0 DoOrth=F DoCkMO=F.
 Initial guess orbital symmetries:
       Occupied  (A') (A') (A') (A') (A') (A") (A') (A') (A') (A')
                 (A') (A") (A') (A") (A')
       Virtual   (A') (A") (A') (A') (A') (A") (A') (A') (A") (A')
                 (A") (A') (A') (A') (A") (A') (A') (A") (A') (A')
                 (A") (A') (A') (A') (A") (A") (A') (A') (A') (A')
                 (A") (A') (A") (A') (A") (A') (A") (A") (A') (A')
                 (A') (A') (A") (A') (A') (A') (A") (A') (A") (A")
                 (A') (A') (A") (A') (A') (A") (A') (A") (A') (A')
                 (A') (A") (A') (A") (A') (A") (A') (A') (A") (A')
                 (A') (A") (A') (A') (A") (A") (A') (A') (A") (A")
                 (A') (A') (A") (A") (A') (A') (A') (A') (A") (A')
                 (A") (A') (A') (A") (A') (A') (A') (A") (A') (A")
                 (A') (A") (A") (A') (A') (A') (A") (A') (A') (A")
                 (A') (A') (A") (A') (A") (A') (A") (A') (A") (A')
                 (A") (A') (A') (A') (A') (A') (A')
 The electronic state of the initial guess is 1-A'.
 Leave Link  401 at Wed May  4 19:08:45 2022, MaxMem=   754974720 cpu:               1.3 elap:               0.3
 (Enter /opt/cluster/programs/g16-c.01/g16/l502.exe)
 Keep R1 ints in memory in symmetry-blocked form, NReq=77616006.
 FoFCou: FMM=F IPFlag=           0 FMFlag=           0 FMFlg1=           0
         NFxFlg=           0 DoJE=F BraDBF=F KetDBF=F FulRan=T
         wScrn=  0.000000 ICntrl=       600 IOpCl=  0 I1Cent=           0 NGrid=           0
         NMat0=    1 NMatS0=  10153 NMatT0=    0 NMatD0=    1 NMtDS0=    0 NMtDT0=    0
 Petite list used in FoFCou.
 Closed shell SCF:
 Using DIIS extrapolation, IDIIS=  1040.
 NGot=   754974720 LenX=   728846748 LenY=   728817746
 Requested convergence on RMS density matrix=1.00D-08 within 200 cycles.
 Requested convergence on MAX density matrix=1.00D-06.
 Requested convergence on             energy=1.00D-06.
 No special actions if energy rises.

 Cycle   1  Pass 1  IDiag  1:
 E= -489.709055074791    
 DIIS: error= 2.70D-02 at cycle   1 NSaved=   1.
 NSaved= 1 IEnMin= 1 EnMin= -489.709055074791     IErMin= 1 ErrMin= 2.70D-02
 ErrMax= 2.70D-02  0.00D+00 EMaxC= 1.00D-01 BMatC= 3.38D-01 BMatP= 3.38D-01
 IDIUse=3 WtCom= 7.30D-01 WtEn= 2.70D-01
 Coeff-Com:  0.100D+01
 Coeff-En:   0.100D+01
 Coeff:      0.100D+01
 Gap=     0.458 Goal=   None    Shift=    0.000
 GapD=    0.458 DampG=2.000 DampE=0.500 DampFc=1.0000 IDamp=-1.
 RMSDP=3.42D-03 MaxDP=6.74D-02              OVMax= 2.31D-01

 Cycle   2  Pass 1  IDiag  1:
 E= -489.820401318877     Delta-E=       -0.111346244086 Rises=F Damp=F
 DIIS: error= 2.31D-02 at cycle   2 NSaved=   2.
 NSaved= 2 IEnMin= 2 EnMin= -489.820401318877     IErMin= 2 ErrMin= 2.31D-02
 ErrMax= 2.31D-02  0.00D+00 EMaxC= 1.00D-01 BMatC= 7.40D-02 BMatP= 3.38D-01
 IDIUse=3 WtCom= 7.69D-01 WtEn= 2.31D-01
 Coeff-Com:  0.257D+00 0.743D+00
 Coeff-En:   0.947D-01 0.905D+00
 Coeff:      0.219D+00 0.781D+00
 Gap=     0.343 Goal=   None    Shift=    0.000
 RMSDP=1.47D-03 MaxDP=4.34D-02 DE=-1.11D-01 OVMax= 9.67D-02

 Cycle   3  Pass 1  IDiag  1:
 E= -489.872060025572     Delta-E=       -0.051658706695 Rises=F Damp=F
 DIIS: error= 1.02D-02 at cycle   3 NSaved=   3.
 NSaved= 3 IEnMin= 3 EnMin= -489.872060025572     IErMin= 3 ErrMin= 1.02D-02
 ErrMax= 1.02D-02  0.00D+00 EMaxC= 1.00D-01 BMatC= 1.87D-02 BMatP= 7.40D-02
 IDIUse=3 WtCom= 8.98D-01 WtEn= 1.02D-01
 Coeff-Com: -0.120D-01 0.319D+00 0.693D+00
 Coeff-En:   0.000D+00 0.104D+00 0.896D+00
 Coeff:     -0.108D-01 0.298D+00 0.713D+00
 Gap=     0.304 Goal=   None    Shift=    0.000
 RMSDP=6.16D-04 MaxDP=1.45D-02 DE=-5.17D-02 OVMax= 5.57D-02

 Cycle   4  Pass 1  IDiag  1:
 E= -489.888548307853     Delta-E=       -0.016488282282 Rises=F Damp=F
 DIIS: error= 5.24D-03 at cycle   4 NSaved=   4.
 NSaved= 4 IEnMin= 4 EnMin= -489.888548307853     IErMin= 4 ErrMin= 5.24D-03
 ErrMax= 5.24D-03  0.00D+00 EMaxC= 1.00D-01 BMatC= 1.17D-03 BMatP= 1.87D-02
 IDIUse=3 WtCom= 9.48D-01 WtEn= 5.24D-02
 Coeff-Com: -0.140D-01 0.599D-01 0.266D+00 0.688D+00
 Coeff-En:   0.000D+00 0.000D+00 0.000D+00 0.100D+01
 Coeff:     -0.133D-01 0.568D-01 0.252D+00 0.704D+00
 Gap=     0.296 Goal=   None    Shift=    0.000
 RMSDP=1.54D-04 MaxDP=3.47D-03 DE=-1.65D-02 OVMax= 1.46D-02

 Cycle   5  Pass 1  IDiag  1:
 E= -489.889848582273     Delta-E=       -0.001300274419 Rises=F Damp=F
 DIIS: error= 1.17D-03 at cycle   5 NSaved=   5.
 NSaved= 5 IEnMin= 5 EnMin= -489.889848582273     IErMin= 5 ErrMin= 1.17D-03
 ErrMax= 1.17D-03  0.00D+00 EMaxC= 1.00D-01 BMatC= 7.94D-05 BMatP= 1.17D-03
 IDIUse=3 WtCom= 9.88D-01 WtEn= 1.17D-02
 Coeff-Com:  0.298D-02-0.483D-01-0.103D+00-0.313D-01 0.118D+01
 Coeff-En:   0.000D+00 0.000D+00 0.000D+00 0.000D+00 0.100D+01
 Coeff:      0.295D-02-0.477D-01-0.102D+00-0.310D-01 0.118D+01
 Gap=     0.295 Goal=   None    Shift=    0.000
 RMSDP=1.29D-04 MaxDP=2.72D-03 DE=-1.30D-03 OVMax= 1.39D-02

 Cycle   6  Pass 1  IDiag  1:
 E= -489.890203684920     Delta-E=       -0.000355102647 Rises=F Damp=F
 DIIS: error= 6.48D-04 at cycle   6 NSaved=   6.
 NSaved= 6 IEnMin= 6 EnMin= -489.890203684920     IErMin= 6 ErrMin= 6.48D-04
 ErrMax= 6.48D-04  0.00D+00 EMaxC= 1.00D-01 BMatC= 2.15D-05 BMatP= 7.94D-05
 IDIUse=3 WtCom= 9.94D-01 WtEn= 6.48D-03
 Coeff-Com:  0.134D-02-0.118D-01-0.291D-01-0.103D+00 0.229D-01 0.112D+01
 Coeff-En:   0.000D+00 0.000D+00 0.000D+00 0.000D+00 0.000D+00 0.100D+01
 Coeff:      0.133D-02-0.118D-01-0.289D-01-0.102D+00 0.227D-01 0.112D+01
 Gap=     0.296 Goal=   None    Shift=    0.000
 RMSDP=7.90D-05 MaxDP=1.85D-03 DE=-3.55D-04 OVMax= 8.58D-03

 Cycle   7  Pass 1  IDiag  1:
 E= -489.890318047275     Delta-E=       -0.000114362355 Rises=F Damp=F
 DIIS: error= 3.09D-04 at cycle   7 NSaved=   7.
 NSaved= 7 IEnMin= 7 EnMin= -489.890318047275     IErMin= 7 ErrMin= 3.09D-04
 ErrMax= 3.09D-04  0.00D+00 EMaxC= 1.00D-01 BMatC= 6.83D-06 BMatP= 2.15D-05
 IDIUse=3 WtCom= 9.97D-01 WtEn= 3.09D-03
 Coeff-Com: -0.602D-03 0.129D-01 0.333D-01 0.756D-02-0.290D+00-0.275D+00
 Coeff-Com:  0.151D+01
 Coeff-En:   0.000D+00 0.000D+00 0.000D+00 0.000D+00 0.000D+00 0.000D+00
 Coeff-En:   0.100D+01
 Coeff:     -0.600D-03 0.128D-01 0.332D-01 0.753D-02-0.289D+00-0.274D+00
 Coeff:      0.151D+01
 Gap=     0.296 Goal=   None    Shift=    0.000
 RMSDP=7.61D-05 MaxDP=2.20D-03 DE=-1.14D-04 OVMax= 7.52D-03

 Cycle   8  Pass 1  IDiag  1:
 E= -489.890375255730     Delta-E=       -0.000057208455 Rises=F Damp=F
 DIIS: error= 1.90D-04 at cycle   8 NSaved=   8.
 NSaved= 8 IEnMin= 8 EnMin= -489.890375255730     IErMin= 8 ErrMin= 1.90D-04
 ErrMax= 1.90D-04  0.00D+00 EMaxC= 1.00D-01 BMatC= 1.53D-06 BMatP= 6.83D-06
 IDIUse=3 WtCom= 9.98D-01 WtEn= 1.90D-03
 Coeff-Com: -0.195D-03-0.242D-02-0.588D-02 0.246D-01 0.152D+00-0.181D+00
 Coeff-Com: -0.830D+00 0.184D+01
 Coeff-En:   0.000D+00 0.000D+00 0.000D+00 0.000D+00 0.000D+00 0.000D+00
 Coeff-En:   0.000D+00 0.100D+01
 Coeff:     -0.195D-03-0.242D-02-0.587D-02 0.245D-01 0.151D+00-0.180D+00
 Coeff:     -0.828D+00 0.184D+01
 Gap=     0.296 Goal=   None    Shift=    0.000
 RMSDP=5.30D-05 MaxDP=1.76D-03 DE=-5.72D-05 OVMax= 4.45D-03

 Cycle   9  Pass 1  IDiag  1:
 E= -489.890391357743     Delta-E=       -0.000016102013 Rises=F Damp=F
 DIIS: error= 6.16D-05 at cycle   9 NSaved=   9.
 NSaved= 9 IEnMin= 9 EnMin= -489.890391357743     IErMin= 9 ErrMin= 6.16D-05
 ErrMax= 6.16D-05  0.00D+00 EMaxC= 1.00D-01 BMatC= 1.53D-07 BMatP= 1.53D-06
 IDIUse=1 WtCom= 1.00D+00 WtEn= 0.00D+00
 Coeff-Com:  0.151D-03-0.164D-02-0.447D-02-0.574D-02 0.165D-01 0.694D-01
 Coeff-Com: -0.406D-01-0.400D+00 0.137D+01
 Coeff:      0.151D-03-0.164D-02-0.447D-02-0.574D-02 0.165D-01 0.694D-01
 Coeff:     -0.406D-01-0.400D+00 0.137D+01
 Gap=     0.296 Goal=   None    Shift=    0.000
 RMSDP=1.25D-05 MaxDP=3.66D-04 DE=-1.61D-05 OVMax= 9.12D-04

 Cycle  10  Pass 1  IDiag  1:
 E= -489.890392593168     Delta-E=       -0.000001235425 Rises=F Damp=F
 DIIS: error= 1.50D-05 at cycle  10 NSaved=  10.
 NSaved=10 IEnMin=10 EnMin= -489.890392593168     IErMin=10 ErrMin= 1.50D-05
 ErrMax= 1.50D-05  0.00D+00 EMaxC= 1.00D-01 BMatC= 1.67D-08 BMatP= 1.53D-07
 IDIUse=1 WtCom= 1.00D+00 WtEn= 0.00D+00
 Coeff-Com:  0.360D-04 0.370D-03 0.837D-03-0.208D-02-0.195D-01 0.664D-02
 Coeff-Com:  0.114D+00-0.172D+00-0.249D+00 0.132D+01
 Coeff:      0.360D-04 0.370D-03 0.837D-03-0.208D-02-0.195D-01 0.664D-02
 Coeff:      0.114D+00-0.172D+00-0.249D+00 0.132D+01
 Gap=     0.296 Goal=   None    Shift=    0.000
 RMSDP=2.87D-06 MaxDP=6.50D-05 DE=-1.24D-06 OVMax= 2.73D-04

 Cycle  11  Pass 1  IDiag  1:
 E= -489.890392693748     Delta-E=       -0.000000100579 Rises=F Damp=F
 DIIS: error= 4.15D-06 at cycle  11 NSaved=  11.
 NSaved=11 IEnMin=11 EnMin= -489.890392693748     IErMin=11 ErrMin= 4.15D-06
 ErrMax= 4.15D-06  0.00D+00 EMaxC= 1.00D-01 BMatC= 1.54D-09 BMatP= 1.67D-08
 IDIUse=1 WtCom= 1.00D+00 WtEn= 0.00D+00
 Coeff-Com: -0.260D-04 0.389D-04 0.372D-04 0.146D-02 0.554D-02-0.863D-02
 Coeff-Com: -0.367D-01 0.105D+00-0.712D-01-0.360D+00 0.137D+01
 Coeff:     -0.260D-04 0.389D-04 0.372D-04 0.146D-02 0.554D-02-0.863D-02
 Coeff:     -0.367D-01 0.105D+00-0.712D-01-0.360D+00 0.137D+01
 Gap=     0.296 Goal=   None    Shift=    0.000
 RMSDP=1.36D-06 MaxDP=5.91D-05 DE=-1.01D-07 OVMax= 7.21D-05

 Cycle  12  Pass 1  IDiag  1:
 E= -489.890392701038     Delta-E=       -0.000000007291 Rises=F Damp=F
 DIIS: error= 1.12D-06 at cycle  12 NSaved=  12.
 NSaved=12 IEnMin=12 EnMin= -489.890392701038     IErMin=12 ErrMin= 1.12D-06
 ErrMax= 1.12D-06  0.00D+00 EMaxC= 1.00D-01 BMatC= 1.04D-10 BMatP= 1.54D-09
 IDIUse=1 WtCom= 1.00D+00 WtEn= 0.00D+00
 Coeff-Com:  0.288D-05-0.402D-04-0.981D-04-0.167D-03 0.714D-03 0.815D-03
 Coeff-Com: -0.234D-02-0.567D-02 0.341D-01-0.386D-01-0.289D+00 0.130D+01
 Coeff:      0.288D-05-0.402D-04-0.981D-04-0.167D-03 0.714D-03 0.815D-03
 Coeff:     -0.234D-02-0.567D-02 0.341D-01-0.386D-01-0.289D+00 0.130D+01
 Gap=     0.296 Goal=   None    Shift=    0.000
 RMSDP=4.51D-07 MaxDP=1.97D-05 DE=-7.29D-09 OVMax= 2.22D-05

 Cycle  13  Pass 1  IDiag  1:
 E= -489.890392701655     Delta-E=       -0.000000000617 Rises=F Damp=F
 DIIS: error= 3.26D-07 at cycle  13 NSaved=  13.
 NSaved=13 IEnMin=13 EnMin= -489.890392701655     IErMin=13 ErrMin= 3.26D-07
 ErrMax= 3.26D-07  0.00D+00 EMaxC= 1.00D-01 BMatC= 9.76D-12 BMatP= 1.04D-10
 IDIUse=1 WtCom= 1.00D+00 WtEn= 0.00D+00
 Coeff-Com:  0.259D-05 0.880D-06 0.990D-05-0.147D-03-0.763D-03 0.775D-03
 Coeff-Com:  0.503D-02-0.113D-01 0.323D-02 0.431D-01-0.986D-01-0.211D+00
 Coeff-Com:  0.127D+01
 Coeff:      0.259D-05 0.880D-06 0.990D-05-0.147D-03-0.763D-03 0.775D-03
 Coeff:      0.503D-02-0.113D-01 0.323D-02 0.431D-01-0.986D-01-0.211D+00
 Coeff:      0.127D+01
 Gap=     0.296 Goal=   None    Shift=    0.000
 RMSDP=1.31D-07 MaxDP=4.93D-06 DE=-6.17D-10 OVMax= 7.25D-06

 Cycle  14  Pass 1  IDiag  1:
 E= -489.890392701708     Delta-E=       -0.000000000053 Rises=F Damp=F
 DIIS: error= 6.80D-08 at cycle  14 NSaved=  14.
 NSaved=14 IEnMin=14 EnMin= -489.890392701708     IErMin=14 ErrMin= 6.80D-08
 ErrMax= 6.80D-08  0.00D+00 EMaxC= 1.00D-01 BMatC= 5.11D-13 BMatP= 9.76D-12
 IDIUse=1 WtCom= 1.00D+00 WtEn= 0.00D+00
 Coeff-Com: -0.748D-06 0.231D-05 0.491D-05 0.418D-04 0.106D-03-0.163D-03
 Coeff-Com: -0.905D-03 0.251D-02-0.211D-02-0.767D-02 0.433D-01-0.504D-01
 Coeff-Com: -0.255D+00 0.127D+01
 Coeff:     -0.748D-06 0.231D-05 0.491D-05 0.418D-04 0.106D-03-0.163D-03
 Coeff:     -0.905D-03 0.251D-02-0.211D-02-0.767D-02 0.433D-01-0.504D-01
 Coeff:     -0.255D+00 0.127D+01
 Gap=     0.296 Goal=   None    Shift=    0.000
 RMSDP=2.03D-08 MaxDP=5.58D-07 DE=-5.30D-11 OVMax= 1.04D-06

 Cycle  15  Pass 1  IDiag  1:
 E= -489.890392701710     Delta-E=       -0.000000000002 Rises=F Damp=F
 DIIS: error= 2.01D-08 at cycle  15 NSaved=  15.
 NSaved=15 IEnMin=15 EnMin= -489.890392701710     IErMin=15 ErrMin= 2.01D-08
 ErrMax= 2.01D-08  0.00D+00 EMaxC= 1.00D-01 BMatC= 3.07D-14 BMatP= 5.11D-13
 IDIUse=1 WtCom= 1.00D+00 WtEn= 0.00D+00
 Coeff-Com:  0.110D-06-0.426D-06-0.110D-05-0.708D-05-0.148D-04 0.341D-04
 Coeff-Com:  0.884D-04-0.350D-03 0.577D-03 0.442D-03-0.887D-02 0.208D-01
 Coeff-Com:  0.401D-01-0.458D+00 0.141D+01
 Coeff:      0.110D-06-0.426D-06-0.110D-05-0.708D-05-0.148D-04 0.341D-04
 Coeff:      0.884D-04-0.350D-03 0.577D-03 0.442D-03-0.887D-02 0.208D-01
 Coeff:      0.401D-01-0.458D+00 0.141D+01
 Gap=     0.296 Goal=   None    Shift=    0.000
 RMSDP=6.76D-09 MaxDP=2.79D-07 DE=-2.16D-12 OVMax= 1.87D-07

 SCF Done:  E(RHF) =  -489.890392702     A.U. after   15 cycles
            NFock= 15  Conv=0.68D-08     -V/T= 2.0001
 KE= 4.898200309803D+02 PE=-1.314611881579D+03 EE= 2.629132206568D+02
 Leave Link  502 at Wed May  4 19:08:49 2022, MaxMem=   754974720 cpu:              12.3 elap:               3.3
 (Enter /opt/cluster/programs/g16-c.01/g16/l801.exe)
 ExpMin= 3.51D-02 ExpMax= 3.74D+05 ExpMxC= 1.18D+03 IAcc=3 IRadAn=         5 AccDes= 0.00D+00
 HarFok:  IExCor=  205 AccDes= 0.00D+00 IRadAn=         5 IDoV=-2 UseB2=F ITyADJ=14
 ICtDFT= 12500011 ScaDFX=  1.000000  1.000000  1.000000  1.000000
 DSYEVD-2 returned Info=          93 IAlg= 4 N=    46 NDim=    46 NE2=    15098045 trying  DSYEV.
 Largest valence mixing into a core orbital is  5.36D-04
 Largest core mixing into a valence orbital is  1.39D-04
 Range of M.O.s used for correlation:     8   142
 NBasis=   142 NAE=    15 NBE=    15 NFC=     7 NFV=     0
 NROrb=    135 NOA=     8 NOB=     8 NVA=   127 NVB=   127

 **** Warning!!: The largest alpha MO coefficient is  0.19907742D+02

 Leave Link  801 at Wed May  4 19:08:49 2022, MaxMem=   754974720 cpu:               0.4 elap:               0.1
 (Enter /opt/cluster/programs/g16-c.01/g16/l906.exe)
 Frozen-core derivative calculation, NFC=   7 NFV=   0.
 FulOut=F Deriv=T AODrv=T NAtomX=     3
   MMem=          74  MDisk=           8 MDiskD=           8
  W3Min=      359970 MinDsk=      723803 NBas6D=         169
 NBas2D=       14809    NTT=       14365    LW2=     3500000
    MDV=   754677088 MDiskM=       22268 NBas2p=       14805
 Fully direct method using O(ONN) memory.
 IMap=   1   2   3   4   5   6   7   8   9  10  11  12  13  14  15
 JobTyp=1 Pass  1:  I=   8 to  15 NPSUse=  4 ParTrn=T ParDer=T DoDerP=T.
 Spin components of T(2) and E(2):
     alpha-alpha T2 =       0.2950046096D-01 E2=     -0.6978904889D-01
     alpha-beta  T2 =       0.1580316953D+00 E2=     -0.3993122418D+00
     beta-beta   T2 =       0.2950046096D-01 E2=     -0.6978904889D-01
 The integrals were generated   1 times.
 ANorm=    0.1103192013D+01
 E2 =    -0.5388903396D+00 EUMP2 =    -0.49042928304129D+03
 Leave Link  906 at Wed May  4 19:08:56 2022, MaxMem=   754974720 cpu:              30.1 elap:               7.5
 (Enter /opt/cluster/programs/g16-c.01/g16/l1002.exe)
 Minotr:  Closed shell wavefunction.
          Computing MP2/KS-MP2 derivatives.
          Using Z-Vector for PSCF gradient.
          Skipping F1 and S1 gradient terms here.
          IDoAtm=111
          Frozen-core window.
          Direct CPHF calculation.
          Differentiating once with respect to electric field.
                with respect to dipole field.
          Differentiating once with respect to nuclear coordinates.
          Using symmetry in CPHF.
          Requested convergence is 1.0D-10 RMS, and 1.0D-09 maximum.
          NewPWx=F KeepS1=T KeepF1=T KeepIn=T MapXYZ=F SortEE=F KeepMc=T.
 Keep R1 ints in memory in symmetry-blocked form, NReq=77616884.
 FoFCou: FMM=F IPFlag=           0 FMFlag=           0 FMFlg1=           0
         NFxFlg=           0 DoJE=F BraDBF=F KetDBF=F FulRan=T
         wScrn=  0.000000 ICntrl=       600 IOpCl=  0 I1Cent=           0 NGrid=           0
         NMat0=    1 NMatS0=  10153 NMatT0=    0 NMatD0=    1 NMtDS0=    0 NMtDT0=    0
 Petite list used in FoFCou.
          MDV=     754974720 using IRadAn=       5.
          Solving linear equations separately, MaxMat=       0.
          There are     1 degrees of freedom in the 1st order CPHF.  IDoFFX=0 NUNeed=     1.
 LinEq1:  Iter=  0 NonCon=     1 RMS=5.28D-03 Max=1.03D-01 NDo=     1
 AX will form     1 AO Fock derivatives at one time.
 LinEq1:  Iter=  1 NonCon=     1 RMS=1.90D-03 Max=2.17D-02 NDo=     1
 LinEq1:  Iter=  2 NonCon=     1 RMS=8.65D-04 Max=1.30D-02 NDo=     1
 LinEq1:  Iter=  3 NonCon=     1 RMS=3.27D-04 Max=4.58D-03 NDo=     1
 LinEq1:  Iter=  4 NonCon=     1 RMS=1.75D-04 Max=4.01D-03 NDo=     1
 LinEq1:  Iter=  5 NonCon=     1 RMS=7.87D-05 Max=7.22D-04 NDo=     1
 LinEq1:  Iter=  6 NonCon=     1 RMS=2.17D-05 Max=2.70D-04 NDo=     1
 LinEq1:  Iter=  7 NonCon=     1 RMS=5.70D-06 Max=5.24D-05 NDo=     1
 LinEq1:  Iter=  8 NonCon=     1 RMS=1.27D-06 Max=1.23D-05 NDo=     1
 LinEq1:  Iter=  9 NonCon=     1 RMS=3.25D-07 Max=4.68D-06 NDo=     1
 LinEq1:  Iter= 10 NonCon=     1 RMS=7.43D-08 Max=1.01D-06 NDo=     1
 LinEq1:  Iter= 11 NonCon=     1 RMS=1.68D-08 Max=1.81D-07 NDo=     1
 LinEq1:  Iter= 12 NonCon=     1 RMS=3.86D-09 Max=5.37D-08 NDo=     1
 LinEq1:  Iter= 13 NonCon=     1 RMS=7.25D-10 Max=9.83D-09 NDo=     1
 LinEq1:  Iter= 14 NonCon=     1 RMS=1.21D-10 Max=1.40D-09 NDo=     1
 LinEq1:  Iter= 15 NonCon=     0 RMS=2.15D-11 Max=1.73D-10 NDo=     1
 Linear equations converged to 1.000D-10 1.000D-09 after    15 iterations.
 End of Minotr F.D. properties file   721 does not exist.
 End of Minotr F.D. properties file   722 does not exist.
 End of Minotr F.D. properties file   788 does not exist.
 Leave Link 1002 at Wed May  4 19:09:00 2022, MaxMem=   754974720 cpu:              12.5 elap:               3.4
 (Enter /opt/cluster/programs/g16-c.01/g16/l601.exe)
 Copying SCF densities to generalized density rwf, IOpCl= 0 IROHF=0.

 **********************************************************************

            Population analysis using the SCF Density.

 **********************************************************************

 Orbital symmetries:
       Occupied  (A') (A') (A') (A') (A') (A") (A') (A') (A') (A')
                 (A') (A") (A') (A") (A')
       Virtual   (A') (A') (A') (A") (A') (A") (A') (A") (A') (A')
                 (A') (A') (A") (A') (A') (A") (A') (A') (A") (A')
                 (A") (A') (A') (A") (A') (A") (A') (A') (A') (A')
                 (A") (A") (A') (A') (A") (A') (A") (A') (A") (A')
                 (A') (A') (A") (A') (A') (A") (A') (A') (A") (A")
                 (A') (A') (A") (A') (A') (A") (A') (A") (A') (A')
                 (A') (A") (A') (A") (A') (A") (A') (A') (A") (A')
                 (A') (A") (A') (A") (A') (A") (A') (A') (A") (A")
                 (A') (A') (A") (A') (A") (A') (A') (A') (A") (A')
                 (A') (A") (A') (A") (A') (A') (A") (A') (A') (A")
                 (A') (A") (A") (A') (A") (A') (A') (A') (A') (A")
                 (A') (A') (A") (A') (A") (A') (A") (A') (A") (A')
                 (A") (A') (A') (A') (A') (A') (A')
 The electronic state is 1-A'.
 Alpha  occ. eigenvalues --  -91.71701 -15.37640 -11.09430  -8.71974  -6.40184
 Alpha  occ. eigenvalues --   -6.39907  -6.39886  -1.01526  -0.75126  -0.41766
 Alpha  occ. eigenvalues --   -0.33138  -0.30806  -0.30310  -0.13135  -0.11741
 Alpha virt. eigenvalues --    0.17842   0.19140   0.21296   0.23165   0.23714
 Alpha virt. eigenvalues --    0.24419   0.24812   0.28865   0.30037   0.30335
 Alpha virt. eigenvalues --    0.32449   0.38093   0.39205   0.42187   0.45218
 Alpha virt. eigenvalues --    0.47203   0.47553   0.52722   0.53327   0.55019
 Alpha virt. eigenvalues --    0.56163   0.59337   0.60108   0.62734   0.67368
 Alpha virt. eigenvalues --    0.69694   0.70441   0.73619   0.74771   0.76753
 Alpha virt. eigenvalues --    0.77736   0.79988   0.82393   0.86939   0.89987
 Alpha virt. eigenvalues --    0.92799   0.96780   0.96804   0.99806   1.01626
 Alpha virt. eigenvalues --    1.04715   1.08648   1.08718   1.15043   1.17806
 Alpha virt. eigenvalues --    1.19411   1.22023   1.24562   1.24634   1.27074
 Alpha virt. eigenvalues --    1.30206   1.35661   1.37863   1.39661   1.46151
 Alpha virt. eigenvalues --    1.49165   1.50804   1.56226   1.57017   1.63518
 Alpha virt. eigenvalues --    1.70852   1.73586   1.79959   1.80289   1.80508
 Alpha virt. eigenvalues --    1.89118   1.89443   2.00247   2.01441   2.05935
 Alpha virt. eigenvalues --    2.11624   2.15442   2.17757   2.29963   2.30672
 Alpha virt. eigenvalues --    2.30776   2.32314   2.36330   2.42134   2.43902
 Alpha virt. eigenvalues --    2.52291   2.57179   2.59792   2.61233   2.61888
 Alpha virt. eigenvalues --    2.62224   2.63393   2.71017   2.76820   2.82529
 Alpha virt. eigenvalues --    2.90661   2.92140   3.15470   3.25704   3.33177
 Alpha virt. eigenvalues --    3.61658   3.70231   3.72570   3.76332   3.77892
 Alpha virt. eigenvalues --    3.83938   3.91427   4.00034   4.01529   4.06260
 Alpha virt. eigenvalues --    4.06608   4.12646   4.27389   4.53770   4.68178
 Alpha virt. eigenvalues --    4.83120   4.91480   5.19020   5.19964   5.45316
 Alpha virt. eigenvalues --    5.47670   5.65276   5.66352   5.81436   5.88605
 Alpha virt. eigenvalues --    6.18962   6.24498   6.29120   6.33138   6.59897
 Alpha virt. eigenvalues --   11.99045  16.14812
          Condensed to atoms (all electrons):
               1          2          3
     1  N    6.920637   0.618876  -0.149130
     2  C    0.618876   5.246338   0.263838
     3  S   -0.149130   0.263838  16.365857
 Mulliken charges:
               1
     1  N   -0.390383
     2  C   -0.129052
     3  S   -0.480565
 Sum of Mulliken charges =  -1.00000
 Mulliken charges with hydrogens summed into heavy atoms:
               1
     1  N   -0.390383
     2  C   -0.129052
     3  S   -0.480565
 Electronic spatial extent (au):  <R**2>=            206.8000
 Charge=             -1.0000 electrons
 Dipole moment (field-independent basis, Debye):
    X=             -0.4731    Y=             -0.1242    Z=             -0.0000  Tot=              0.4891
 Quadrupole moment (field-independent basis, Debye-Ang):
   XX=            -34.0570   YY=            -35.0706   ZZ=            -29.5146
   XY=             -5.6347   XZ=             -0.0000   YZ=              0.0000
 Traceless Quadrupole moment (field-independent basis, Debye-Ang):
   XX=             -1.1763   YY=             -2.1899   ZZ=              3.3662
   XY=             -5.6347   XZ=             -0.0000   YZ=              0.0000
 Octapole moment (field-independent basis, Debye-Ang**2):
  XXX=              2.9310  YYY=             -8.3783  ZZZ=             -0.0000  XYY=             -5.7236
  XXY=             -2.0793  XXZ=              0.0000  XZZ=              1.5858  YZZ=              1.8644
  YYZ=              0.0000  XYZ=              0.0000
 Hexadecapole moment (field-independent basis, Debye-Ang**3):
 XXXX=           -129.1369 YYYY=           -203.2012 ZZZZ=            -47.3140 XXXY=            -57.8715
 XXXZ=              0.0000 YYYX=            -53.0249 YYYZ=              0.0000 ZZZX=              0.0000
 ZZZY=              0.0000 XXYY=            -61.0517 XXZZ=            -28.6897 YYZZ=            -42.9050
 XXYZ=              0.0000 YYXZ=              0.0000 ZZXY=            -17.3760
 N-N= 7.198823724067D+01 E-N=-1.314611881651D+03  KE= 4.898200309803D+02
 Symmetry A'   KE= 4.487647269238D+02
 Symmetry A"   KE= 4.105530405653D+01
 No NMR shielding tensors so no spin-rotation constants.
 Leave Link  601 at Wed May  4 19:09:00 2022, MaxMem=   754974720 cpu:               0.7 elap:               0.2
 (Enter /opt/cluster/programs/g16-c.01/g16/l701.exe)
 ... and contract with generalized density number  2.
 Compute integral first derivatives.
 Leave Link  701 at Wed May  4 19:09:00 2022, MaxMem=   754974720 cpu:               0.7 elap:               0.2
 (Enter /opt/cluster/programs/g16-c.01/g16/l702.exe)
 L702 exits ... SP integral derivatives will be done elsewhere.
 Leave Link  702 at Wed May  4 19:09:00 2022, MaxMem=   754974720 cpu:               0.1 elap:               0.0
 (Enter /opt/cluster/programs/g16-c.01/g16/l703.exe)
 Integral derivatives from FoFJK, PRISM(SPDF).
 Compute integral first derivatives, UseDBF=F ICtDFT=           0.
 Calling FoFJK, ICntrl=  10002127 FMM=F ISym2X=1 I1Cent= 0 IOpClX= 0 NMat=1 NMatS=1 NMatT=0.
 FoFJK:  IHMeth= 1 ICntrl=10002127 DoSepK=F KAlg= 0 I1Cent=           0 FoldK=F
 IRaf=         0 NMat=       1 IRICut=       1 DoRegI=T DoRafI=F ISym2E= 1 IDoP0=0 IntGTp=1.
 FoFCou: FMM=F IPFlag=           0 FMFlag=      100000 FMFlg1=         800
         NFxFlg=           0 DoJE=F BraDBF=F KetDBF=F FulRan=T
         wScrn=  0.000000 ICntrl=  10002127 IOpCl=  0 I1Cent=           0 NGrid=           0
         NMat0=    1 NMatS0=      1 NMatT0=    0 NMatD0=    1 NMtDS0=    0 NMtDT0=    0
 Petite list used in FoFCou.
 Leave Link  703 at Wed May  4 19:09:04 2022, MaxMem=   754974720 cpu:              13.3 elap:               3.4
 (Enter /opt/cluster/programs/g16-c.01/g16/l716.exe)
 Dipole        =-1.91912183D-01-7.98441735D-02-8.15828063D-31
 ***** Axes restored to original set *****
 -------------------------------------------------------------------
 Center     Atomic                   Forces (Hartrees/Bohr)
 Number     Number              X              Y              Z
 -------------------------------------------------------------------
      1        7          -0.054687199    0.000000000   -0.018294597
      2        6           0.050641985   -0.000000000   -0.037239531
      3       16           0.004045214    0.000000000    0.055534129
 -------------------------------------------------------------------
 Cartesian Forces:  Max     0.055534129 RMS     0.033956146
 Leave Link  716 at Wed May  4 19:09:04 2022, MaxMem=   754974720 cpu:               0.2 elap:               0.1
 (Enter /opt/cluster/programs/g16-c.01/g16/l103.exe)

 GradGradGradGradGradGradGradGradGradGradGradGradGradGradGradGradGradGrad
 Berny optimization.
 FormGI is forming the generalized inverse of G from B-inverse, IUseBI=4.
 Internal  Forces:  Max     0.123222748 RMS     0.075449170
 Search for a local minimum.
 Step number   1 out of a maximum of   20
 All quantities printed in internal units (Hartrees-Bohrs-Radians)
 RMS Force = .30772D-01 SwitMx=.10000D-02 MixMth= 1
 Mixed Optimization -- RFO/linear search
 Second derivative matrix not updated -- first step.
 The second derivative matrix:
                          R1        R2        A1
           R1           1.08759
           R2           0.00000   0.41030
           A1           0.00000   0.00000   0.25000
 ITU=  0
     Eigenvalues ---    0.41030   1.087591000.00000
 RFO step:  Lambda=-4.06941200D-03 EMin= 4.10299174D-01
 Linear search not attempted -- first point.
 Iteration  1 RMS(Cart)=  0.04764371 RMS(Int)=  0.00004012
 Iteration  2 RMS(Cart)=  0.00004916 RMS(Int)=  0.00000000
 Iteration  3 RMS(Cart)=  0.00000000 RMS(Int)=  0.00000000
 Iteration  1 RMS(Cart)=  0.00000000 RMS(Int)=  0.00000000
 ITry= 1 IFail=0 DXMaxC= 5.22D-02 DCOld= 1.00D+10 DXMaxT= 3.00D-01 DXLimC= 3.00D+00 Rises=F
 ClnCor:  largest displacement from symmetrization is 1.81D-15 for atom     1.
 Variable       Old X    -DE/DX   Delta X   Delta X   Delta X     New X
                                 (Linear)    (Quad)   (Total)
    R1        2.25323   0.01829   0.00000   0.01676   0.01676   2.26999
    R2        3.13877   0.03949   0.00000   0.09529   0.09529   3.23407
    A1        2.28638   0.12322   0.00000   0.00000  -0.00000   2.28638
         Item               Value     Threshold  Converged?
 Maximum Force            0.039487     0.000450     NO 
 RMS     Force            0.030772     0.000300     NO 
 Maximum Displacement     0.052233     0.001800     NO 
 RMS     Displacement     0.047661     0.001200     NO 
 Predicted change in Energy=-2.053753D-03
 Lowest energy point so far.  Saving SCF results.
 GradGradGradGradGradGradGradGradGradGradGradGradGradGradGradGradGradGrad

 Leave Link  103 at Wed May  4 19:09:04 2022, MaxMem=   754974720 cpu:               0.2 elap:               0.1
 (Enter /opt/cluster/programs/g16-c.01/g16/l202.exe)
                          Input orientation:                          
 ---------------------------------------------------------------------
 Center     Atomic      Atomic             Coordinates (Angstroms)
 Number     Number       Type             X           Y           Z
 ---------------------------------------------------------------------
      1          7           0       -0.009089   -0.000000   -1.839195
      2          6           0       -0.012764    0.000000   -0.637975
      3         16           0        1.275401   -0.000000    0.488748
 ---------------------------------------------------------------------
                    Distance matrix (angstroms):
                    1          2          3
     1  N    0.000000
     2  C    1.201225   0.000000
     3  S    2.658802   1.711395   0.000000
 Stoichiometry    CNS(1-)
 Framework group  CS[SG(CNS)]
 Deg. of freedom     3
 Full point group                 CS      NOp   2
 RotChk:  IX=0 Diff= 1.52D-02
 Largest Abelian subgroup         CS      NOp   2
 Largest concise Abelian subgroup C1      NOp   1
                         Standard orientation:                         
 ---------------------------------------------------------------------
 Center     Atomic      Atomic             Coordinates (Angstroms)
 Number     Number       Type             X           Y           Z
 ---------------------------------------------------------------------
      1          7           0        1.090306    1.289265    0.000000
      2          6           0        0.000000    0.785106    0.000000
      3         16           0       -0.477009   -0.858468    0.000000
 ---------------------------------------------------------------------
 Rotational constants (GHZ):         170.3457641           6.7214088           6.4662664
 Leave Link  202 at Wed May  4 19:09:04 2022, MaxMem=   754974720 cpu:               0.1 elap:               0.0
 (Enter /opt/cluster/programs/g16-c.01/g16/l301.exe)
 Standard basis: Aug-CC-pVTZ (5D, 7F)
 Ernie: Thresh=  0.10000D-02 Tol=  0.10000D-05 Strict=F.
 Ernie:  19 primitive shells out of 124 were deleted.
 There are   114 symmetry adapted cartesian basis functions of A'  symmetry.
 There are    55 symmetry adapted cartesian basis functions of A"  symmetry.
 There are    93 symmetry adapted basis functions of A'  symmetry.
 There are    49 symmetry adapted basis functions of A"  symmetry.
   142 basis functions,   258 primitive gaussians,   169 cartesian basis functions
    15 alpha electrons       15 beta electrons
       nuclear repulsion energy        70.4774700498 Hartrees.
 IExCor=    0 DFT=F Ex=HF Corr=None ExCW=0 ScaHFX=  1.000000
 ScaDFX=  1.000000  1.000000  1.000000  1.000000 ScalE2=  1.000000  1.000000
 IRadAn=      5 IRanWt=     -1 IRanGd=            0 ICorTp=0 IEmpDi=  4
 NAtoms=    3 NActive=    3 NUniq=    3 SFac= 1.00D+00 NAtFMM=   60 NAOKFM=F Big=F
 Integral buffers will be    131072 words long.
 Raffenetti 1 integral format.
 Two-electron integral symmetry is turned on.
 Leave Link  301 at Wed May  4 19:09:04 2022, MaxMem=   754974720 cpu:               0.2 elap:               0.1
 (Enter /opt/cluster/programs/g16-c.01/g16/l302.exe)
 NPDir=0 NMtPBC=     1 NCelOv=     1 NCel=       1 NClECP=     1 NCelD=      1
         NCelK=      1 NCelE2=     1 NClLst=     1 CellRange=     0.0.
 One-electron integrals computed using PRISM.
 One-electron integral symmetry used in STVInt
 NBasis=   142 RedAO= T EigKep=  1.21D-04  NBF=    93    49
 NBsUse=   142 1.00D-06 EigRej= -1.00D+00 NBFU=    93    49
 Leave Link  302 at Wed May  4 19:09:04 2022, MaxMem=   754974720 cpu:               0.5 elap:               0.2
 (Enter /opt/cluster/programs/g16-c.01/g16/l303.exe)
 DipDrv:  MaxL=1.
 Leave Link  303 at Wed May  4 19:09:04 2022, MaxMem=   754974720 cpu:               0.2 elap:               0.1
 (Enter /opt/cluster/programs/g16-c.01/g16/l401.exe)
 Initial guess from the checkpoint file:  "gaussian_12_scn.chk"
 B after Tr=    -0.000000   -0.000000    0.000000
         Rot=    0.999985   -0.000000   -0.000000   -0.005558 Ang=  -0.64 deg.
 Guess basis will be translated and rotated to current coordinates.
 JPrj=2 DoOrth=T DoCkMO=T.
 Initial guess orbital symmetries:
       Occupied  (A') (A') (A') (A') (A') (A") (A') (A') (A') (A')
                 (A') (A") (A') (A") (A')
       Virtual   (A') (A') (A') (A") (A') (A") (A') (A") (A') (A')
                 (A') (A') (A") (A') (A') (A") (A') (A') (A") (A')
                 (A") (A') (A') (A") (A') (A") (A') (A') (A') (A')
                 (A") (A") (A') (A') (A") (A') (A") (A') (A") (A')
                 (A') (A') (A") (A') (A') (A") (A') (A') (A") (A")
                 (A') (A') (A") (A') (A') (A") (A') (A") (A') (A')
                 (A') (A") (A') (A") (A') (A") (A') (A') (A") (A')
                 (A') (A") (A') (A") (A') (A") (A') (A') (A") (A")
                 (A') (A') (A") (A') (A") (A') (A') (A') (A") (A')
                 (A') (A") (A') (A") (A') (A') (A") (A') (A') (A")
                 (A') (A") (A") (A') (A") (A') (A') (A') (A') (A")
                 (A') (A') (A") (A') (A") (A') (A") (A') (A") (A')
                 (A") (A') (A') (A') (A') (A') (A')
 The electronic state of the initial guess is 1-A'.
 Generating alternative initial guess.
 ExpMin= 3.51D-02 ExpMax= 3.74D+05 ExpMxC= 1.18D+03 IAcc=3 IRadAn=         5 AccDes= 0.00D+00
 Harris functional with IExCor=  205 and IRadAn=       5 diagonalized for initial guess.
 HarFok:  IExCor=  205 AccDes= 0.00D+00 IRadAn=         5 IDoV= 1 UseB2=F ITyADJ=14
 ICtDFT=  3500011 ScaDFX=  1.000000  1.000000  1.000000  1.000000
 FoFCou: FMM=F IPFlag=           0 FMFlag=      100000 FMFlg1=           0
         NFxFlg=           0 DoJE=T BraDBF=F KetDBF=T FulRan=T
         wScrn=  0.000000 ICntrl=       500 IOpCl=  0 I1Cent=   200000004 NGrid=           0
         NMat0=    1 NMatS0=      1 NMatT0=    0 NMatD0=    1 NMtDS0=    0 NMtDT0=    0
 Petite list used in FoFCou.
 Harris En= -489.713936672585    
 Leave Link  401 at Wed May  4 19:09:05 2022, MaxMem=   754974720 cpu:               1.4 elap:               0.4
 (Enter /opt/cluster/programs/g16-c.01/g16/l502.exe)
 Keep R1 ints in memory in symmetry-blocked form, NReq=77616006.
 FoFCou: FMM=F IPFlag=           0 FMFlag=           0 FMFlg1=           0
         NFxFlg=           0 DoJE=F BraDBF=F KetDBF=F FulRan=T
         wScrn=  0.000000 ICntrl=       600 IOpCl=  0 I1Cent=           0 NGrid=           0
         NMat0=    1 NMatS0=  10153 NMatT0=    0 NMatD0=    1 NMtDS0=    0 NMtDT0=    0
 Petite list used in FoFCou.
 Closed shell SCF:
 Using DIIS extrapolation, IDIIS=  1040.
 NGot=   754974720 LenX=   728846748 LenY=   728817746
 Requested convergence on RMS density matrix=1.00D-08 within 200 cycles.
 Requested convergence on MAX density matrix=1.00D-06.
 Requested convergence on             energy=1.00D-06.
 No special actions if energy rises.

 Cycle   1  Pass 1  IDiag  1:
 E= -489.891146639533    
 DIIS: error= 2.23D-03 at cycle   1 NSaved=   1.
 NSaved= 1 IEnMin= 1 EnMin= -489.891146639533     IErMin= 1 ErrMin= 2.23D-03
 ErrMax= 2.23D-03  0.00D+00 EMaxC= 1.00D-01 BMatC= 5.98D-04 BMatP= 5.98D-04
 IDIUse=3 WtCom= 9.78D-01 WtEn= 2.23D-02
 Coeff-Com:  0.100D+01
 Coeff-En:   0.100D+01
 Coeff:      0.100D+01
 Gap=     0.319 Goal=   None    Shift=    0.000
 GapD=    0.319 DampG=1.000 DampE=1.000 DampFc=1.0000 IDamp=-1.
 RMSDP=2.26D-04 MaxDP=4.82D-03              OVMax= 8.16D-03

 Cycle   2  Pass 1  IDiag  1:
 E= -489.891904779176     Delta-E=       -0.000758139643 Rises=F Damp=F
 DIIS: error= 9.44D-04 at cycle   2 NSaved=   2.
 NSaved= 2 IEnMin= 2 EnMin= -489.891904779176     IErMin= 2 ErrMin= 9.44D-04
 ErrMax= 9.44D-04  0.00D+00 EMaxC= 1.00D-01 BMatC= 8.22D-05 BMatP= 5.98D-04
 IDIUse=3 WtCom= 9.91D-01 WtEn= 9.44D-03
 Coeff-Com:  0.109D+00 0.891D+00
 Coeff-En:   0.000D+00 0.100D+01
 Coeff:      0.108D+00 0.892D+00
 Gap=     0.300 Goal=   None    Shift=    0.000
 RMSDP=8.36D-05 MaxDP=1.83D-03 DE=-7.58D-04 OVMax= 4.03D-03

 Cycle   3  Pass 1  IDiag  1:
 E= -489.892007288051     Delta-E=       -0.000102508875 Rises=F Damp=F
 DIIS: error= 8.00D-04 at cycle   3 NSaved=   3.
 NSaved= 3 IEnMin= 3 EnMin= -489.892007288051     IErMin= 3 ErrMin= 8.00D-04
 ErrMax= 8.00D-04  0.00D+00 EMaxC= 1.00D-01 BMatC= 3.06D-05 BMatP= 8.22D-05
 IDIUse=3 WtCom= 9.92D-01 WtEn= 8.00D-03
 Coeff-Com: -0.830D-01 0.325D+00 0.758D+00
 Coeff-En:   0.000D+00 0.000D+00 0.100D+01
 Coeff:     -0.823D-01 0.322D+00 0.760D+00
 Gap=     0.300 Goal=   None    Shift=    0.000
 RMSDP=3.11D-05 MaxDP=7.27D-04 DE=-1.03D-04 OVMax= 2.41D-03

 Cycle   4  Pass 1  IDiag  1:
 E= -489.892047480133     Delta-E=       -0.000040192082 Rises=F Damp=F
 DIIS: error= 2.18D-04 at cycle   4 NSaved=   4.
 NSaved= 4 IEnMin= 4 EnMin= -489.892047480133     IErMin= 4 ErrMin= 2.18D-04
 ErrMax= 2.18D-04  0.00D+00 EMaxC= 1.00D-01 BMatC= 3.30D-06 BMatP= 3.06D-05
 IDIUse=3 WtCom= 9.98D-01 WtEn= 2.18D-03
 Coeff-Com: -0.301D-01-0.343D-01 0.188D+00 0.876D+00
 Coeff-En:   0.000D+00 0.000D+00 0.000D+00 0.100D+01
 Coeff:     -0.300D-01-0.342D-01 0.188D+00 0.876D+00
 Gap=     0.300 Goal=   None    Shift=    0.000
 RMSDP=1.85D-05 MaxDP=4.08D-04 DE=-4.02D-05 OVMax= 1.39D-03

 Cycle   5  Pass 1  IDiag  1:
 E= -489.892055334727     Delta-E=       -0.000007854594 Rises=F Damp=F
 DIIS: error= 7.85D-05 at cycle   5 NSaved=   5.
 NSaved= 5 IEnMin= 5 EnMin= -489.892055334727     IErMin= 5 ErrMin= 7.85D-05
 ErrMax= 7.85D-05  0.00D+00 EMaxC= 1.00D-01 BMatC= 6.06D-07 BMatP= 3.30D-06
 IDIUse=1 WtCom= 1.00D+00 WtEn= 0.00D+00
 Coeff-Com:  0.176D-01-0.735D-01-0.158D+00 0.701D-01 0.114D+01
 Coeff:      0.176D-01-0.735D-01-0.158D+00 0.701D-01 0.114D+01
 Gap=     0.300 Goal=   None    Shift=    0.000
 RMSDP=1.28D-05 MaxDP=2.92D-04 DE=-7.85D-06 OVMax= 8.93D-04

 Cycle   6  Pass 1  IDiag  1:
 E= -489.892057604933     Delta-E=       -0.000002270206 Rises=F Damp=F
 DIIS: error= 2.38D-05 at cycle   6 NSaved=   6.
 NSaved= 6 IEnMin= 6 EnMin= -489.892057604933     IErMin= 6 ErrMin= 2.38D-05
 ErrMax= 2.38D-05  0.00D+00 EMaxC= 1.00D-01 BMatC= 5.82D-08 BMatP= 6.06D-07
 IDIUse=1 WtCom= 1.00D+00 WtEn= 0.00D+00
 Coeff-Com:  0.156D-02 0.147D-01-0.137D-01-0.102D+00-0.136D+00 0.124D+01
 Coeff:      0.156D-02 0.147D-01-0.137D-01-0.102D+00-0.136D+00 0.124D+01
 Gap=     0.300 Goal=   None    Shift=    0.000
 RMSDP=4.89D-06 MaxDP=1.32D-04 DE=-2.27D-06 OVMax= 3.15D-04

 Cycle   7  Pass 1  IDiag  1:
 E= -489.892057878631     Delta-E=       -0.000000273698 Rises=F Damp=F
 DIIS: error= 1.19D-05 at cycle   7 NSaved=   7.
 NSaved= 7 IEnMin= 7 EnMin= -489.892057878631     IErMin= 7 ErrMin= 1.19D-05
 ErrMax= 1.19D-05  0.00D+00 EMaxC= 1.00D-01 BMatC= 9.03D-09 BMatP= 5.82D-08
 IDIUse=1 WtCom= 1.00D+00 WtEn= 0.00D+00
 Coeff-Com: -0.230D-02 0.130D-01 0.174D-01-0.192D-01-0.181D+00 0.179D+00
 Coeff-Com:  0.993D+00
 Coeff:     -0.230D-02 0.130D-01 0.174D-01-0.192D-01-0.181D+00 0.179D+00
 Coeff:      0.993D+00
 Gap=     0.300 Goal=   None    Shift=    0.000
 RMSDP=1.67D-06 MaxDP=5.99D-05 DE=-2.74D-07 OVMax= 1.02D-04

 Cycle   8  Pass 1  IDiag  1:
 E= -489.892057909088     Delta-E=       -0.000000030457 Rises=F Damp=F
 DIIS: error= 4.00D-06 at cycle   8 NSaved=   8.
 NSaved= 8 IEnMin= 8 EnMin= -489.892057909088     IErMin= 8 ErrMin= 4.00D-06
 ErrMax= 4.00D-06  0.00D+00 EMaxC= 1.00D-01 BMatC= 1.05D-09 BMatP= 9.03D-09
 IDIUse=1 WtCom= 1.00D+00 WtEn= 0.00D+00
 Coeff-Com:  0.548D-03-0.557D-02-0.372D-02 0.180D-01 0.740D-01-0.199D+00
 Coeff-Com: -0.403D+00 0.152D+01
 Coeff:      0.548D-03-0.557D-02-0.372D-02 0.180D-01 0.740D-01-0.199D+00
 Coeff:     -0.403D+00 0.152D+01
 Gap=     0.300 Goal=   None    Shift=    0.000
 RMSDP=8.29D-07 MaxDP=3.23D-05 DE=-3.05D-08 OVMax= 3.62D-05

 Cycle   9  Pass 1  IDiag  1:
 E= -489.892057914689     Delta-E=       -0.000000005601 Rises=F Damp=F
 DIIS: error= 1.62D-06 at cycle   9 NSaved=   9.
 NSaved= 9 IEnMin= 9 EnMin= -489.892057914689     IErMin= 9 ErrMin= 1.62D-06
 ErrMax= 1.62D-06  0.00D+00 EMaxC= 1.00D-01 BMatC= 1.03D-10 BMatP= 1.05D-09
 IDIUse=1 WtCom= 1.00D+00 WtEn= 0.00D+00
 Coeff-Com:  0.662D-04 0.312D-03-0.539D-03-0.420D-02-0.180D-02 0.423D-01
 Coeff-Com:  0.257D-01-0.484D+00 0.142D+01
 Coeff:      0.662D-04 0.312D-03-0.539D-03-0.420D-02-0.180D-02 0.423D-01
 Coeff:      0.257D-01-0.484D+00 0.142D+01
 Gap=     0.300 Goal=   None    Shift=    0.000
 RMSDP=1.63D-07 MaxDP=3.66D-06 DE=-5.60D-09 OVMax= 1.50D-05

 Cycle  10  Pass 1  IDiag  1:
 E= -489.892057915270     Delta-E=       -0.000000000581 Rises=F Damp=F
 DIIS: error= 5.60D-07 at cycle  10 NSaved=  10.
 NSaved=10 IEnMin=10 EnMin= -489.892057915270     IErMin=10 ErrMin= 5.60D-07
 ErrMax= 5.60D-07  0.00D+00 EMaxC= 1.00D-01 BMatC= 1.55D-11 BMatP= 1.03D-10
 IDIUse=1 WtCom= 1.00D+00 WtEn= 0.00D+00
 Coeff-Com: -0.578D-04 0.280D-03 0.417D-03-0.416D-03-0.393D-02 0.361D-03
 Coeff-Com:  0.158D-01 0.603D-01-0.511D+00 0.144D+01
 Coeff:     -0.578D-04 0.280D-03 0.417D-03-0.416D-03-0.393D-02 0.361D-03
 Coeff:      0.158D-01 0.603D-01-0.511D+00 0.144D+01
 Gap=     0.300 Goal=   None    Shift=    0.000
 RMSDP=9.03D-08 MaxDP=2.95D-06 DE=-5.81D-10 OVMax= 6.42D-06

 Cycle  11  Pass 1  IDiag  1:
 E= -489.892057915386     Delta-E=       -0.000000000116 Rises=F Damp=F
 DIIS: error= 3.40D-07 at cycle  11 NSaved=  11.
 NSaved=11 IEnMin=11 EnMin= -489.892057915386     IErMin=11 ErrMin= 3.40D-07
 ErrMax= 3.40D-07  0.00D+00 EMaxC= 1.00D-01 BMatC= 5.62D-12 BMatP= 1.55D-11
 IDIUse=1 WtCom= 1.00D+00 WtEn= 0.00D+00
 Coeff-Com:  0.415D-05-0.207D-03 0.104D-03 0.945D-03 0.291D-02-0.120D-01
 Coeff-Com: -0.141D-01 0.980D-01-0.136D+00-0.661D+00 0.172D+01
 Coeff:      0.415D-05-0.207D-03 0.104D-03 0.945D-03 0.291D-02-0.120D-01
 Coeff:     -0.141D-01 0.980D-01-0.136D+00-0.661D+00 0.172D+01
 Gap=     0.300 Goal=   None    Shift=    0.000
 RMSDP=7.98D-08 MaxDP=2.59D-06 DE=-1.16D-10 OVMax= 6.64D-06

 Cycle  12  Pass 1  IDiag  1:
 E= -489.892057915438     Delta-E=       -0.000000000053 Rises=F Damp=F
 DIIS: error= 1.24D-07 at cycle  12 NSaved=  12.
 NSaved=12 IEnMin=12 EnMin= -489.892057915438     IErMin=12 ErrMin= 1.24D-07
 ErrMax= 1.24D-07  0.00D+00 EMaxC= 1.00D-01 BMatC= 9.06D-13 BMatP= 5.62D-12
 IDIUse=1 WtCom= 1.00D+00 WtEn= 0.00D+00
 Coeff-Com:  0.137D-04-0.465D-04-0.982D-04-0.993D-04 0.657D-03 0.146D-02
 Coeff-Com: -0.169D-02-0.317D-01 0.166D+00-0.267D+00-0.425D+00 0.156D+01
 Coeff:      0.137D-04-0.465D-04-0.982D-04-0.993D-04 0.657D-03 0.146D-02
 Coeff:     -0.169D-02-0.317D-01 0.166D+00-0.267D+00-0.425D+00 0.156D+01
 Gap=     0.300 Goal=   None    Shift=    0.000
 RMSDP=4.23D-08 MaxDP=1.14D-06 DE=-5.28D-11 OVMax= 4.05D-06

 Cycle  13  Pass 1  IDiag  1:
 E= -489.892057915449     Delta-E=       -0.000000000011 Rises=F Damp=F
 DIIS: error= 3.35D-08 at cycle  13 NSaved=  13.
 NSaved=13 IEnMin=13 EnMin= -489.892057915449     IErMin=13 ErrMin= 3.35D-08
 ErrMax= 3.35D-08  0.00D+00 EMaxC= 1.00D-01 BMatC= 3.78D-14 BMatP= 9.06D-13
 IDIUse=1 WtCom= 1.00D+00 WtEn= 0.00D+00
 Coeff-Com: -0.516D-05 0.328D-04 0.283D-04-0.528D-04-0.446D-03 0.632D-03
 Coeff-Com:  0.787D-03 0.398D-02-0.454D-01 0.139D+00-0.885D-02-0.458D+00
 Coeff-Com:  0.137D+01
 Coeff:     -0.516D-05 0.328D-04 0.283D-04-0.528D-04-0.446D-03 0.632D-03
 Coeff:      0.787D-03 0.398D-02-0.454D-01 0.139D+00-0.885D-02-0.458D+00
 Coeff:      0.137D+01
 Gap=     0.300 Goal=   None    Shift=    0.000
 RMSDP=5.80D-09 MaxDP=1.17D-07 DE=-1.08D-11 OVMax= 5.74D-07

 SCF Done:  E(RHF) =  -489.892057915     A.U. after   13 cycles
            NFock= 13  Conv=0.58D-08     -V/T= 2.0005
 KE= 4.896707564041D+02 PE=-1.311411454108D+03 EE= 2.613711697384D+02
 Leave Link  502 at Wed May  4 19:09:14 2022, MaxMem=   754974720 cpu:              28.3 elap:               9.6
 (Enter /opt/cluster/programs/g16-c.01/g16/l801.exe)
 ExpMin= 3.51D-02 ExpMax= 3.74D+05 ExpMxC= 1.18D+03 IAcc=3 IRadAn=         5 AccDes= 0.00D+00
 HarFok:  IExCor=  205 AccDes= 0.00D+00 IRadAn=         5 IDoV=-2 UseB2=F ITyADJ=14
 ICtDFT= 12500011 ScaDFX=  1.000000  1.000000  1.000000  1.000000
 DSYEVD-2 returned Info=         101 IAlg= 4 N=    50 NDim=    50 NE2=    15098045 trying  DSYEV.
 Largest valence mixing into a core orbital is  5.40D-04
 Largest core mixing into a valence orbital is  1.46D-04
 Range of M.O.s used for correlation:     8   142
 NBasis=   142 NAE=    15 NBE=    15 NFC=     7 NFV=     0
 NROrb=    135 NOA=     8 NOB=     8 NVA=   127 NVB=   127

 **** Warning!!: The largest alpha MO coefficient is  0.23255903D+02

 Leave Link  801 at Wed May  4 19:09:15 2022, MaxMem=   754974720 cpu:               1.0 elap:               0.4
 (Enter /opt/cluster/programs/g16-c.01/g16/l906.exe)
 Frozen-core derivative calculation, NFC=   7 NFV=   0.
 FulOut=F Deriv=T AODrv=T NAtomX=     3
   MMem=          74  MDisk=           8 MDiskD=           8
  W3Min=      359970 MinDsk=      723803 NBas6D=         169
 NBas2D=       14809    NTT=       14365    LW2=     3500000
    MDV=   754677522 MDiskM=       22268 NBas2p=       14801
 Fully direct method using O(ONN) memory.
 IMap=   1   2   3   4   5   6   7   8   9  10  11  12  13  14  15
 JobTyp=1 Pass  1:  I=   8 to  15 NPSUse=  4 ParTrn=T ParDer=T DoDerP=T.
 Spin components of T(2) and E(2):
     alpha-alpha T2 =       0.2970553872D-01 E2=     -0.6965244712D-01
     alpha-beta  T2 =       0.1598648647D+00 E2=     -0.4003050643D+00
     beta-beta   T2 =       0.2970553872D-01 E2=     -0.6965244712D-01
 The integrals were generated   1 times.
 ANorm=    0.1104208287D+01
 E2 =    -0.5396099585D+00 EUMP2 =    -0.49043166787396D+03
 Leave Link  906 at Wed May  4 19:09:23 2022, MaxMem=   754974720 cpu:              27.7 elap:               7.9
 (Enter /opt/cluster/programs/g16-c.01/g16/l1002.exe)
 Minotr:  Closed shell wavefunction.
          Computing MP2/KS-MP2 derivatives.
          Using Z-Vector for PSCF gradient.
          Skipping F1 and S1 gradient terms here.
          IDoAtm=111
          Frozen-core window.
          Direct CPHF calculation.
          Differentiating once with respect to electric field.
                with respect to dipole field.
          Differentiating once with respect to nuclear coordinates.
          Using symmetry in CPHF.
          Requested convergence is 1.0D-10 RMS, and 1.0D-09 maximum.
          NewPWx=F KeepS1=T KeepF1=T KeepIn=T MapXYZ=F SortEE=F KeepMc=T.
 Keep R1 ints in memory in symmetry-blocked form, NReq=77616884.
 FoFCou: FMM=F IPFlag=           0 FMFlag=           0 FMFlg1=           0
         NFxFlg=           0 DoJE=F BraDBF=F KetDBF=F FulRan=T
         wScrn=  0.000000 ICntrl=       600 IOpCl=  0 I1Cent=           0 NGrid=           0
         NMat0=    1 NMatS0=  10153 NMatT0=    0 NMatD0=    1 NMtDS0=    0 NMtDT0=    0
 Petite list used in FoFCou.
          MDV=     754974720 using IRadAn=       5.
          Solving linear equations separately, MaxMat=       0.
          There are     1 degrees of freedom in the 1st order CPHF.  IDoFFX=0 NUNeed=     1.
 LinEq1:  Iter=  0 NonCon=     1 RMS=5.37D-03 Max=1.04D-01 NDo=     1
 AX will form     1 AO Fock derivatives at one time.
 LinEq1:  Iter=  1 NonCon=     1 RMS=1.92D-03 Max=2.35D-02 NDo=     1
 LinEq1:  Iter=  2 NonCon=     1 RMS=8.66D-04 Max=1.32D-02 NDo=     1
 LinEq1:  Iter=  3 NonCon=     1 RMS=3.52D-04 Max=4.26D-03 NDo=     1
 LinEq1:  Iter=  4 NonCon=     1 RMS=2.03D-04 Max=4.79D-03 NDo=     1
 LinEq1:  Iter=  5 NonCon=     1 RMS=8.59D-05 Max=8.01D-04 NDo=     1
 LinEq1:  Iter=  6 NonCon=     1 RMS=2.33D-05 Max=2.73D-04 NDo=     1
 LinEq1:  Iter=  7 NonCon=     1 RMS=6.13D-06 Max=7.20D-05 NDo=     1
 LinEq1:  Iter=  8 NonCon=     1 RMS=1.38D-06 Max=1.38D-05 NDo=     1
 LinEq1:  Iter=  9 NonCon=     1 RMS=3.70D-07 Max=5.22D-06 NDo=     1
 LinEq1:  Iter= 10 NonCon=     1 RMS=8.89D-08 Max=1.32D-06 NDo=     1
 LinEq1:  Iter= 11 NonCon=     1 RMS=1.86D-08 Max=1.51D-07 NDo=     1
 LinEq1:  Iter= 12 NonCon=     1 RMS=4.24D-09 Max=6.22D-08 NDo=     1
 LinEq1:  Iter= 13 NonCon=     1 RMS=7.62D-10 Max=1.07D-08 NDo=     1
 LinEq1:  Iter= 14 NonCon=     1 RMS=1.30D-10 Max=1.53D-09 NDo=     1
 LinEq1:  Iter= 15 NonCon=     0 RMS=2.57D-11 Max=3.18D-10 NDo=     1
 Linear equations converged to 1.000D-10 1.000D-09 after    15 iterations.
 End of Minotr F.D. properties file   721 does not exist.
 End of Minotr F.D. properties file   722 does not exist.
 End of Minotr F.D. properties file   788 does not exist.
 Leave Link 1002 at Wed May  4 19:09:26 2022, MaxMem=   754974720 cpu:              12.1 elap:               3.3
 (Enter /opt/cluster/programs/g16-c.01/g16/l701.exe)
 ... and contract with generalized density number  2.
 Compute integral first derivatives.
 Leave Link  701 at Wed May  4 19:09:26 2022, MaxMem=   754974720 cpu:               0.7 elap:               0.2
 (Enter /opt/cluster/programs/g16-c.01/g16/l702.exe)
 L702 exits ... SP integral derivatives will be done elsewhere.
 Leave Link  702 at Wed May  4 19:09:26 2022, MaxMem=   754974720 cpu:               0.1 elap:               0.0
 (Enter /opt/cluster/programs/g16-c.01/g16/l703.exe)
 Integral derivatives from FoFJK, PRISM(SPDF).
 Compute integral first derivatives, UseDBF=F ICtDFT=           0.
 Calling FoFJK, ICntrl=  10002127 FMM=F ISym2X=1 I1Cent= 0 IOpClX= 0 NMat=1 NMatS=1 NMatT=0.
 FoFJK:  IHMeth= 1 ICntrl=10002127 DoSepK=F KAlg= 0 I1Cent=           0 FoldK=F
 IRaf=         0 NMat=       1 IRICut=       1 DoRegI=T DoRafI=F ISym2E= 1 IDoP0=0 IntGTp=1.
 FoFCou: FMM=F IPFlag=           0 FMFlag=      100000 FMFlg1=         800
         NFxFlg=           0 DoJE=F BraDBF=F KetDBF=F FulRan=T
         wScrn=  0.000000 ICntrl=  10002127 IOpCl=  0 I1Cent=           0 NGrid=           0
         NMat0=    1 NMatS0=      1 NMatT0=    0 NMatD0=    1 NMtDS0=    0 NMtDT0=    0
 Petite list used in FoFCou.
 Leave Link  703 at Wed May  4 19:09:29 2022, MaxMem=   754974720 cpu:              12.5 elap:               3.2
 (Enter /opt/cluster/programs/g16-c.01/g16/l716.exe)
 Dipole        =-1.78901131D-01-6.07948373D-02-1.24566250D-33
 ***** Axes restored to original set *****
 -------------------------------------------------------------------
 Center     Atomic                   Forces (Hartrees/Bohr)
 Number     Number              X              Y              Z
 -------------------------------------------------------------------
      1        7          -0.049636185    0.000000000    0.002488545
      2        6           0.065655176   -0.000000000   -0.034756048
      3       16          -0.016018991    0.000000000    0.032267502
 -------------------------------------------------------------------
 Cartesian Forces:  Max     0.065655176 RMS     0.032121866
 Leave Link  716 at Wed May  4 19:09:30 2022, MaxMem=   754974720 cpu:               0.2 elap:               0.1
 (Enter /opt/cluster/programs/g16-c.01/g16/l103.exe)

 GradGradGradGradGradGradGradGradGradGradGradGradGradGradGradGradGradGrad
 Berny optimization.
 Using GEDIIS/GDIIS optimizer.
 FormGI is forming the generalized inverse of G from B-inverse, IUseBI=4.
 Internal  Forces:  Max     0.112655679 RMS     0.065275474
 Search for a local minimum.
 Step number   2 out of a maximum of   20
 All quantities printed in internal units (Hartrees-Bohrs-Radians)
 RMS Force = .67587D-02 SwitMx=.10000D-02 MixMth= 1
 Mixed Optimization -- RFO/linear search
 Update second derivatives using D2CorX and points    1    2
 DE= -2.38D-03 DEPred=-2.05D-03 R= 1.16D+00
 TightC=F SS=  1.41D+00  RLast= 9.68D-02 DXNew= 5.0454D-01 2.9027D-01
 Trust test= 1.16D+00 RLast= 9.68D-02 DXMaxT set to 3.00D-01
 The second derivative matrix:
                          R1        R2        A1
           R1           1.14053
           R2           0.01911   0.31461
           A1           0.06831   0.09888   0.28448
 ITU=  1  0
 Use linear search instead of GDIIS.
     Eigenvalues ---    0.31416   1.140971000.00000
 RFO step:  Lambda=-7.55662370D-05 EMin= 3.14164692D-01
 Quartic linear search produced a step of  0.30298.
 Iteration  1 RMS(Cart)=  0.01539028 RMS(Int)=  0.00001086
 Iteration  2 RMS(Cart)=  0.00001305 RMS(Int)=  0.00000000
 Iteration  3 RMS(Cart)=  0.00000000 RMS(Int)=  0.00000000
 Iteration  1 RMS(Cart)=  0.00000000 RMS(Int)=  0.00000000
 ITry= 1 IFail=0 DXMaxC= 1.67D-02 DCOld= 1.00D+10 DXMaxT= 3.00D-01 DXLimC= 3.00D+00 Rises=F
 ClnCor:  largest displacement from symmetrization is 1.13D-15 for atom     1.
 Variable       Old X    -DE/DX   Delta X   Delta X   Delta X     New X
                                 (Linear)    (Quad)   (Total)
    R1        2.26999  -0.00264   0.00508  -0.00773  -0.00265   2.26733
    R2        3.23407   0.00919   0.02887   0.00534   0.03421   3.26828
    A1        2.28638   0.11266   0.00000   0.00000   0.00000   2.28638
         Item               Value     Threshold  Converged?
 Maximum Force            0.009186     0.000450     NO 
 RMS     Force            0.006759     0.000300     NO 
 Maximum Displacement     0.016722     0.001800     NO 
 RMS     Displacement     0.015394     0.001200     NO 
 Predicted change in Energy=-1.348912D-04
 Lowest energy point so far.  Saving SCF results.
 GradGradGradGradGradGradGradGradGradGradGradGradGradGradGradGradGradGrad

 Leave Link  103 at Wed May  4 19:09:30 2022, MaxMem=   754974720 cpu:               0.0 elap:               0.0
 (Enter /opt/cluster/programs/g16-c.01/g16/l202.exe)
                          Input orientation:                          
 ---------------------------------------------------------------------
 Center     Atomic      Atomic             Coordinates (Angstroms)
 Number     Number       Type             X           Y           Z
 ---------------------------------------------------------------------
      1          7           0       -0.011766    0.000000   -1.842914
      2          6           0       -0.017337    0.000000   -0.643105
      3         16           0        1.282651   -0.000000    0.497597
 ---------------------------------------------------------------------
                    Distance matrix (angstroms):
                    1          2          3
     1  N    0.000000
     2  C    1.199822   0.000000
     3  S    2.674603   1.729499   0.000000
 Stoichiometry    CNS(1-)
 Framework group  CS[SG(CNS)]
 Deg. of freedom     3
 Full point group                 CS      NOp   2
 RotChk:  IX=0 Diff= 7.74D-03
 Largest Abelian subgroup         CS      NOp   2
 Largest concise Abelian subgroup C1      NOp   1
                         Standard orientation:                         
 ---------------------------------------------------------------------
 Center     Atomic      Atomic             Coordinates (Angstroms)
 Number     Number       Type             X           Y           Z
 ---------------------------------------------------------------------
      1          7           0        1.087065    1.302648   -0.000000
      2          6           0        0.000000    0.794847   -0.000000
      3         16           0       -0.475591   -0.867976    0.000000
 ---------------------------------------------------------------------
 Rotational constants (GHZ):         169.4976366           6.6298449           6.3802823
 Leave Link  202 at Wed May  4 19:09:30 2022, MaxMem=   754974720 cpu:               0.1 elap:               0.0
 (Enter /opt/cluster/programs/g16-c.01/g16/l301.exe)
 Standard basis: Aug-CC-pVTZ (5D, 7F)
 Ernie: Thresh=  0.10000D-02 Tol=  0.10000D-05 Strict=F.
 Ernie:  19 primitive shells out of 124 were deleted.
 There are   114 symmetry adapted cartesian basis functions of A'  symmetry.
 There are    55 symmetry adapted cartesian basis functions of A"  symmetry.
 There are    93 symmetry adapted basis functions of A'  symmetry.
 There are    49 symmetry adapted basis functions of A"  symmetry.
   142 basis functions,   258 primitive gaussians,   169 cartesian basis functions
    15 alpha electrons       15 beta electrons
       nuclear repulsion energy        70.0566955794 Hartrees.
 IExCor=    0 DFT=F Ex=HF Corr=None ExCW=0 ScaHFX=  1.000000
 ScaDFX=  1.000000  1.000000  1.000000  1.000000 ScalE2=  1.000000  1.000000
 IRadAn=      5 IRanWt=     -1 IRanGd=            0 ICorTp=0 IEmpDi=  4
 NAtoms=    3 NActive=    3 NUniq=    3 SFac= 1.00D+00 NAtFMM=   60 NAOKFM=F Big=F
 Integral buffers will be    131072 words long.
 Raffenetti 1 integral format.
 Two-electron integral symmetry is turned on.
 Leave Link  301 at Wed May  4 19:09:30 2022, MaxMem=   754974720 cpu:               0.2 elap:               0.1
 (Enter /opt/cluster/programs/g16-c.01/g16/l302.exe)
 NPDir=0 NMtPBC=     1 NCelOv=     1 NCel=       1 NClECP=     1 NCelD=      1
         NCelK=      1 NCelE2=     1 NClLst=     1 CellRange=     0.0.
 One-electron integrals computed using PRISM.
 One-electron integral symmetry used in STVInt
 NBasis=   142 RedAO= T EigKep=  1.25D-04  NBF=    93    49
 NBsUse=   142 1.00D-06 EigRej= -1.00D+00 NBFU=    93    49
 Leave Link  302 at Wed May  4 19:09:30 2022, MaxMem=   754974720 cpu:               0.6 elap:               0.2
 (Enter /opt/cluster/programs/g16-c.01/g16/l303.exe)
 DipDrv:  MaxL=1.
 Leave Link  303 at Wed May  4 19:09:30 2022, MaxMem=   754974720 cpu:               0.2 elap:               0.1
 (Enter /opt/cluster/programs/g16-c.01/g16/l401.exe)
 Initial guess from the checkpoint file:  "gaussian_12_scn.chk"
 B after Tr=    -0.000000    0.000000    0.000000
         Rot=    0.999996    0.000000    0.000000   -0.002839 Ang=  -0.33 deg.
 Guess basis will be translated and rotated to current coordinates.
 JPrj=2 DoOrth=T DoCkMO=T.
 Initial guess orbital symmetries:
       Occupied  (A') (A') (A') (A') (A') (A") (A') (A') (A') (A')
                 (A') (A") (A') (A") (A')
       Virtual   (A') (A') (A') (A") (A') (A") (A') (A") (A') (A')
                 (A') (A') (A") (A') (A') (A") (A') (A') (A") (A')
                 (A") (A') (A') (A") (A') (A") (A') (A') (A') (A')
                 (A") (A") (A') (A') (A") (A') (A") (A') (A") (A')
                 (A') (A') (A") (A') (A') (A") (A') (A') (A") (A")
                 (A') (A') (A") (A') (A') (A") (A') (A") (A') (A')
                 (A') (A") (A") (A') (A') (A') (A") (A') (A") (A')
                 (A') (A") (A') (A") (A") (A') (A') (A') (A") (A")
                 (A') (A') (A") (A') (A") (A') (A') (A') (A") (A')
                 (A') (A") (A') (A") (A') (A') (A") (A') (A') (A")
                 (A') (A") (A") (A') (A") (A') (A') (A') (A') (A")
                 (A') (A') (A") (A') (A") (A') (A") (A') (A") (A')
                 (A") (A') (A') (A') (A') (A') (A')
 The electronic state of the initial guess is 1-A'.
 Leave Link  401 at Wed May  4 19:09:30 2022, MaxMem=   754974720 cpu:               0.4 elap:               0.1
 (Enter /opt/cluster/programs/g16-c.01/g16/l502.exe)
 Keep R1 ints in memory in symmetry-blocked form, NReq=77616006.
 FoFCou: FMM=F IPFlag=           0 FMFlag=           0 FMFlg1=           0
         NFxFlg=           0 DoJE=F BraDBF=F KetDBF=F FulRan=T
         wScrn=  0.000000 ICntrl=       600 IOpCl=  0 I1Cent=           0 NGrid=           0
         NMat0=    1 NMatS0=  10153 NMatT0=    0 NMatD0=    1 NMtDS0=    0 NMtDT0=    0
 Petite list used in FoFCou.
 Closed shell SCF:
 Using DIIS extrapolation, IDIIS=  1040.
 NGot=   754974720 LenX=   728846748 LenY=   728817746
 Requested convergence on RMS density matrix=1.00D-08 within 200 cycles.
 Requested convergence on MAX density matrix=1.00D-06.
 Requested convergence on             energy=1.00D-06.
 No special actions if energy rises.

 Cycle   1  Pass 1  IDiag  1:
 E= -489.892691166890    
 DIIS: error= 7.48D-04 at cycle   1 NSaved=   1.
 NSaved= 1 IEnMin= 1 EnMin= -489.892691166890     IErMin= 1 ErrMin= 7.48D-04
 ErrMax= 7.48D-04  0.00D+00 EMaxC= 1.00D-01 BMatC= 6.72D-05 BMatP= 6.72D-05
 IDIUse=3 WtCom= 9.93D-01 WtEn= 7.48D-03
 Coeff-Com:  0.100D+01
 Coeff-En:   0.100D+01
 Coeff:      0.100D+01
 Gap=     0.304 Goal=   None    Shift=    0.000
 RMSDP=7.16D-05 MaxDP=1.63D-03              OVMax= 3.21D-03

 Cycle   2  Pass 1  IDiag  1:
 E= -489.892791423746     Delta-E=       -0.000100256857 Rises=F Damp=F
 DIIS: error= 3.47D-04 at cycle   2 NSaved=   2.
 NSaved= 2 IEnMin= 2 EnMin= -489.892791423746     IErMin= 2 ErrMin= 3.47D-04
 ErrMax= 3.47D-04  0.00D+00 EMaxC= 1.00D-01 BMatC= 1.02D-05 BMatP= 6.72D-05
 IDIUse=3 WtCom= 9.97D-01 WtEn= 3.47D-03
 Coeff-Com:  0.863D-01 0.914D+00
 Coeff-En:   0.000D+00 0.100D+01
 Coeff:      0.860D-01 0.914D+00
 Gap=     0.301 Goal=   None    Shift=    0.000
 RMSDP=2.96D-05 MaxDP=5.72D-04 DE=-1.00D-04 OVMax= 1.68D-03

 Cycle   3  Pass 1  IDiag  1:
 E= -489.892805480907     Delta-E=       -0.000014057161 Rises=F Damp=F
 DIIS: error= 2.64D-04 at cycle   3 NSaved=   3.
 NSaved= 3 IEnMin= 3 EnMin= -489.892805480907     IErMin= 3 ErrMin= 2.64D-04
 ErrMax= 2.64D-04  0.00D+00 EMaxC= 1.00D-01 BMatC= 4.93D-06 BMatP= 1.02D-05
 IDIUse=3 WtCom= 9.97D-01 WtEn= 2.64D-03
 Coeff-Com: -0.104D+00 0.382D+00 0.721D+00
 Coeff-En:   0.000D+00 0.000D+00 0.100D+01
 Coeff:     -0.103D+00 0.381D+00 0.722D+00
 Gap=     0.301 Goal=   None    Shift=    0.000
 RMSDP=1.20D-05 MaxDP=2.41D-04 DE=-1.41D-05 OVMax= 1.02D-03

 Cycle   4  Pass 1  IDiag  1:
 E= -489.892812200075     Delta-E=       -0.000006719168 Rises=F Damp=F
 DIIS: error= 9.34D-05 at cycle   4 NSaved=   4.
 NSaved= 4 IEnMin= 4 EnMin= -489.892812200075     IErMin= 4 ErrMin= 9.34D-05
 ErrMax= 9.34D-05  0.00D+00 EMaxC= 1.00D-01 BMatC= 3.96D-07 BMatP= 4.93D-06
 IDIUse=1 WtCom= 1.00D+00 WtEn= 0.00D+00
 Coeff-Com: -0.120D-01-0.101D+00 0.493D-01 0.106D+01
 Coeff:     -0.120D-01-0.101D+00 0.493D-01 0.106D+01
 Gap=     0.301 Goal=   None    Shift=    0.000
 RMSDP=8.01D-06 MaxDP=1.74D-04 DE=-6.72D-06 OVMax= 6.61D-04

 Cycle   5  Pass 1  IDiag  1:
 E= -489.892813683570     Delta-E=       -0.000001483495 Rises=F Damp=F
 DIIS: error= 3.52D-05 at cycle   5 NSaved=   5.
 NSaved= 5 IEnMin= 5 EnMin= -489.892813683570     IErMin= 5 ErrMin= 3.52D-05
 ErrMax= 3.52D-05  0.00D+00 EMaxC= 1.00D-01 BMatC= 8.51D-08 BMatP= 3.96D-07
 IDIUse=1 WtCom= 1.00D+00 WtEn= 0.00D+00
 Coeff-Com:  0.183D-01-0.659D-01-0.141D+00-0.276D-02 0.119D+01
 Coeff:      0.183D-01-0.659D-01-0.141D+00-0.276D-02 0.119D+01
 Gap=     0.301 Goal=   None    Shift=    0.000
 RMSDP=4.92D-06 MaxDP=1.09D-04 DE=-1.48D-06 OVMax= 4.00D-04

 Cycle   6  Pass 1  IDiag  1:
 E= -489.892814077556     Delta-E=       -0.000000393986 Rises=F Damp=F
 DIIS: error= 1.19D-05 at cycle   6 NSaved=   6.
 NSaved= 6 IEnMin= 6 EnMin= -489.892814077556     IErMin= 6 ErrMin= 1.19D-05
 ErrMax= 1.19D-05  0.00D+00 EMaxC= 1.00D-01 BMatC= 1.24D-08 BMatP= 8.51D-08
 IDIUse=1 WtCom= 1.00D+00 WtEn= 0.00D+00
 Coeff-Com:  0.102D-02 0.240D-01-0.122D-01-0.190D+00-0.253D-01 0.120D+01
 Coeff:      0.102D-02 0.240D-01-0.122D-01-0.190D+00-0.253D-01 0.120D+01
 Gap=     0.301 Goal=   None    Shift=    0.000
 RMSDP=2.04D-06 MaxDP=4.63D-05 DE=-3.94D-07 OVMax= 1.58D-04

 Cycle   7  Pass 1  IDiag  1:
 E= -489.892814139109     Delta-E=       -0.000000061553 Rises=F Damp=F
 DIIS: error= 6.16D-06 at cycle   7 NSaved=   7.
 NSaved= 7 IEnMin= 7 EnMin= -489.892814139109     IErMin= 7 ErrMin= 6.16D-06
 ErrMax= 6.16D-06  0.00D+00 EMaxC= 1.00D-01 BMatC= 1.84D-09 BMatP= 1.24D-08
 IDIUse=1 WtCom= 1.00D+00 WtEn= 0.00D+00
 Coeff-Com: -0.264D-02 0.107D-01 0.184D-01-0.951D-02-0.133D+00 0.472D-02
 Coeff-Com:  0.111D+01
 Coeff:     -0.264D-02 0.107D-01 0.184D-01-0.951D-02-0.133D+00 0.472D-02
 Coeff:      0.111D+01
 Gap=     0.301 Goal=   None    Shift=    0.000
 RMSDP=6.21D-07 MaxDP=1.62D-05 DE=-6.16D-08 OVMax= 4.11D-05

 Cycle   8  Pass 1  IDiag  1:
 E= -489.892814147816     Delta-E=       -0.000000008706 Rises=F Damp=F
 DIIS: error= 3.28D-06 at cycle   8 NSaved=   8.
 NSaved= 8 IEnMin= 8 EnMin= -489.892814147816     IErMin= 8 ErrMin= 3.28D-06
 ErrMax= 3.28D-06  0.00D+00 EMaxC= 1.00D-01 BMatC= 4.93D-10 BMatP= 1.84D-09
 IDIUse=1 WtCom= 1.00D+00 WtEn= 0.00D+00
 Coeff-Com:  0.274D-03-0.661D-02 0.151D-02 0.335D-01 0.395D-01-0.261D+00
 Coeff-Com: -0.197D+00 0.139D+01
 Coeff:      0.274D-03-0.661D-02 0.151D-02 0.335D-01 0.395D-01-0.261D+00
 Coeff:     -0.197D+00 0.139D+01
 Gap=     0.301 Goal=   None    Shift=    0.000
 RMSDP=3.80D-07 MaxDP=9.32D-06 DE=-8.71D-09 OVMax= 3.26D-05

 Cycle   9  Pass 1  IDiag  1:
 E= -489.892814151150     Delta-E=       -0.000000003335 Rises=F Damp=F
 DIIS: error= 1.48D-06 at cycle   9 NSaved=   9.
 NSaved= 9 IEnMin= 9 EnMin= -489.892814151150     IErMin= 9 ErrMin= 1.48D-06
 ErrMax= 1.48D-06  0.00D+00 EMaxC= 1.00D-01 BMatC= 1.21D-10 BMatP= 4.93D-10
 IDIUse=1 WtCom= 1.00D+00 WtEn= 0.00D+00
 Coeff-Com:  0.498D-03-0.919D-03-0.364D-02-0.114D-01 0.259D-01 0.722D-01
 Coeff-Com: -0.193D+00-0.426D+00 0.154D+01
 Coeff:      0.498D-03-0.919D-03-0.364D-02-0.114D-01 0.259D-01 0.722D-01
 Coeff:     -0.193D+00-0.426D+00 0.154D+01
 Gap=     0.301 Goal=   None    Shift=    0.000
 RMSDP=2.74D-07 MaxDP=7.15D-06 DE=-3.33D-09 OVMax= 2.65D-05

 Cycle  10  Pass 1  IDiag  1:
 E= -489.892814152179     Delta-E=       -0.000000001028 Rises=F Damp=F
 DIIS: error= 7.26D-07 at cycle  10 NSaved=  10.
 NSaved=10 IEnMin=10 EnMin= -489.892814152179     IErMin=10 ErrMin= 7.26D-07
 ErrMax= 7.26D-07  0.00D+00 EMaxC= 1.00D-01 BMatC= 2.42D-11 BMatP= 1.21D-10
 IDIUse=1 WtCom= 1.00D+00 WtEn= 0.00D+00
 Coeff-Com: -0.376D-03 0.227D-02 0.230D-02-0.449D-02-0.217D-01 0.242D-01
 Coeff-Com:  0.159D+00-0.142D+00-0.777D+00 0.176D+01
 Coeff:     -0.376D-03 0.227D-02 0.230D-02-0.449D-02-0.217D-01 0.242D-01
 Coeff:      0.159D+00-0.142D+00-0.777D+00 0.176D+01
 Gap=     0.301 Goal=   None    Shift=    0.000
 RMSDP=2.12D-07 MaxDP=7.58D-06 DE=-1.03D-09 OVMax= 1.75D-05

 Cycle  11  Pass 1  IDiag  1:
 E= -489.892814152422     Delta-E=       -0.000000000243 Rises=F Damp=F
 DIIS: error= 2.01D-07 at cycle  11 NSaved=  11.
 NSaved=11 IEnMin=11 EnMin= -489.892814152422     IErMin=11 ErrMin= 2.01D-07
 ErrMax= 2.01D-07  0.00D+00 EMaxC= 1.00D-01 BMatC= 2.32D-12 BMatP= 2.42D-11
 IDIUse=1 WtCom= 1.00D+00 WtEn= 0.00D+00
 Coeff-Com:  0.351D-04-0.634D-03 0.925D-04 0.341D-02 0.261D-02-0.224D-01
 Coeff-Com: -0.159D-01 0.122D+00-0.707D-02-0.583D+00 0.150D+01
 Coeff:      0.351D-04-0.634D-03 0.925D-04 0.341D-02 0.261D-02-0.224D-01
 Coeff:     -0.159D-01 0.122D+00-0.707D-02-0.583D+00 0.150D+01
 Gap=     0.301 Goal=   None    Shift=    0.000
 RMSDP=6.47D-08 MaxDP=2.04D-06 DE=-2.43D-10 OVMax= 5.48D-06

 Cycle  12  Pass 1  IDiag  1:
 E= -489.892814152442     Delta-E=       -0.000000000020 Rises=F Damp=F
 DIIS: error= 4.82D-08 at cycle  12 NSaved=  12.
 NSaved=12 IEnMin=12 EnMin= -489.892814152442     IErMin=12 ErrMin= 4.82D-08
 ErrMax= 4.82D-08  0.00D+00 EMaxC= 1.00D-01 BMatC= 7.97D-14 BMatP= 2.32D-12
 IDIUse=1 WtCom= 1.00D+00 WtEn= 0.00D+00
 Coeff-Com:  0.114D-04-0.680D-05-0.950D-04-0.366D-03 0.551D-03 0.290D-02
 Coeff-Com: -0.609D-02-0.158D-01 0.467D-01 0.105D-01-0.303D+00 0.126D+01
 Coeff:      0.114D-04-0.680D-05-0.950D-04-0.366D-03 0.551D-03 0.290D-02
 Coeff:     -0.609D-02-0.158D-01 0.467D-01 0.105D-01-0.303D+00 0.126D+01
 Gap=     0.301 Goal=   None    Shift=    0.000
 RMSDP=8.23D-09 MaxDP=1.76D-07 DE=-1.97D-11 OVMax= 7.79D-07

 SCF Done:  E(RHF) =  -489.892814152     A.U. after   12 cycles
            NFock= 12  Conv=0.82D-08     -V/T= 2.0005
 KE= 4.896432706421D+02 PE=-1.310534270248D+03 EE= 2.609414898740D+02
 Leave Link  502 at Wed May  4 19:09:33 2022, MaxMem=   754974720 cpu:              11.0 elap:               3.0
 (Enter /opt/cluster/programs/g16-c.01/g16/l801.exe)
 ExpMin= 3.51D-02 ExpMax= 3.74D+05 ExpMxC= 1.18D+03 IAcc=3 IRadAn=         5 AccDes= 0.00D+00
 HarFok:  IExCor=  205 AccDes= 0.00D+00 IRadAn=         5 IDoV=-2 UseB2=F ITyADJ=14
 ICtDFT= 12500011 ScaDFX=  1.000000  1.000000  1.000000  1.000000
 Largest valence mixing into a core orbital is  5.42D-04
 Largest core mixing into a valence orbital is  1.49D-04
 Range of M.O.s used for correlation:     8   142
 NBasis=   142 NAE=    15 NBE=    15 NFC=     7 NFV=     0
 NROrb=    135 NOA=     8 NOB=     8 NVA=   127 NVB=   127

 **** Warning!!: The largest alpha MO coefficient is  0.23265793D+02

 Leave Link  801 at Wed May  4 19:09:33 2022, MaxMem=   754974720 cpu:               0.4 elap:               0.1
 (Enter /opt/cluster/programs/g16-c.01/g16/l906.exe)
[...]
 NSaved=11 IEnMin=10 EnMin= -489.893034313863     IErMin=11 ErrMin= 1.51D-08
 ErrMax= 1.51D-08  0.00D+00 EMaxC= 1.00D-01 BMatC= 2.14D-14 BMatP= 2.58D-13
 IDIUse=1 WtCom= 1.00D+00 WtEn= 0.00D+00
 Coeff-Com: -0.163D-04-0.197D-03 0.377D-03 0.174D-02-0.101D-02-0.715D-02
 Coeff-Com: -0.582D-02 0.769D-01-0.162D+00-0.848D-01 0.118D+01
 Coeff:     -0.163D-04-0.197D-03 0.377D-03 0.174D-02-0.101D-02-0.715D-02
 Coeff:     -0.582D-02 0.769D-01-0.162D+00-0.848D-01 0.118D+01
 Gap=     0.301 Goal=   None    Shift=    0.000
 RMSDP=5.30D-09 MaxDP=1.80D-07 DE= 0.00D+00 OVMax= 3.67D-07

 SCF Done:  E(RHF) =  -489.893034314     A.U. after   11 cycles
            NFock= 11  Conv=0.53D-08     -V/T= 2.0005
 KE= 4.896452908608D+02 PE=-1.310508126523D+03 EE= 2.609272176892D+02
 Leave Link  502 at Wed May  4 19:09:50 2022, MaxMem=   754974720 cpu:              10.9 elap:               2.9
 (Enter /opt/cluster/programs/g16-c.01/g16/l801.exe)
 ExpMin= 3.51D-02 ExpMax= 3.74D+05 ExpMxC= 1.18D+03 IAcc=3 IRadAn=         5 AccDes= 0.00D+00
 HarFok:  IExCor=  205 AccDes= 0.00D+00 IRadAn=         5 IDoV=-2 UseB2=F ITyADJ=14
 ICtDFT= 12500011 ScaDFX=  1.000000  1.000000  1.000000  1.000000
 Largest valence mixing into a core orbital is  5.42D-04
 Largest core mixing into a valence orbital is  1.49D-04
 Range of M.O.s used for correlation:     8   142
 NBasis=   142 NAE=    15 NBE=    15 NFC=     7 NFV=     0
 NROrb=    135 NOA=     8 NOB=     8 NVA=   127 NVB=   127

 **** Warning!!: The largest alpha MO coefficient is  0.23254868D+02

 Leave Link  801 at Wed May  4 19:09:51 2022, MaxMem=   754974720 cpu:               0.4 elap:               0.1
 (Enter /opt/cluster/programs/g16-c.01/g16/l906.exe)
 Frozen-core derivative calculation, NFC=   7 NFV=   0.
 FulOut=F Deriv=T AODrv=T NAtomX=     3
   MMem=          74  MDisk=           8 MDiskD=           8
  W3Min=      359970 MinDsk=      723803 NBas6D=         169
 NBas2D=       14809    NTT=       14365    LW2=     3500000
    MDV=   754677620 MDiskM=       22268 NBas2p=       14801
 Fully direct method using O(ONN) memory.
 IMap=   1   2   3   4   5   6   7   8   9  10  11  12  13  14  15
 JobTyp=1 Pass  1:  I=   8 to  15 NPSUse=  4 ParTrn=T ParDer=T DoDerP=T.
 Spin components of T(2) and E(2):
     alpha-alpha T2 =       0.2959826764D-01 E2=     -0.6942783938D-01
     alpha-beta  T2 =       0.1597134891D+00 E2=     -0.3999513981D+00
     beta-beta   T2 =       0.2959826764D-01 E2=     -0.6942783938D-01
 The integrals were generated   1 times.
 ANorm=    0.1104042583D+01
 E2 =    -0.5388070769D+00 EUMP2 =    -0.49043184139073D+03
 Leave Link  906 at Wed May  4 19:09:57 2022, MaxMem=   754974720 cpu:              26.6 elap:               6.7
 (Enter /opt/cluster/programs/g16-c.01/g16/l1002.exe)
 Minotr:  Closed shell wavefunction.
          Computing MP2/KS-MP2 derivatives.
          Using Z-Vector for PSCF gradient.
          Skipping F1 and S1 gradient terms here.
          IDoAtm=111
          Frozen-core window.
          Direct CPHF calculation.
          Differentiating once with respect to electric field.
                with respect to dipole field.
          Differentiating once with respect to nuclear coordinates.
          Using symmetry in CPHF.
          Requested convergence is 1.0D-10 RMS, and 1.0D-09 maximum.
          NewPWx=F KeepS1=T KeepF1=T KeepIn=T MapXYZ=F SortEE=F KeepMc=T.
 Keep R1 ints in memory in symmetry-blocked form, NReq=77616884.
 FoFCou: FMM=F IPFlag=           0 FMFlag=           0 FMFlg1=           0
         NFxFlg=           0 DoJE=F BraDBF=F KetDBF=F FulRan=T
         wScrn=  0.000000 ICntrl=       600 IOpCl=  0 I1Cent=           0 NGrid=           0
         NMat0=    1 NMatS0=  10153 NMatT0=    0 NMatD0=    1 NMtDS0=    0 NMtDT0=    0
 Petite list used in FoFCou.
          MDV=     754974720 using IRadAn=       5.
          Solving linear equations separately, MaxMat=       0.
          There are     1 degrees of freedom in the 1st order CPHF.  IDoFFX=0 NUNeed=     1.
 LinEq1:  Iter=  0 NonCon=     1 RMS=5.33D-03 Max=1.02D-01 NDo=     1
 AX will form     1 AO Fock derivatives at one time.
 LinEq1:  Iter=  1 NonCon=     1 RMS=1.89D-03 Max=2.30D-02 NDo=     1
 LinEq1:  Iter=  2 NonCon=     1 RMS=8.42D-04 Max=1.28D-02 NDo=     1
 LinEq1:  Iter=  3 NonCon=     1 RMS=3.51D-04 Max=4.04D-03 NDo=     1
 LinEq1:  Iter=  4 NonCon=     1 RMS=2.05D-04 Max=4.84D-03 NDo=     1
 LinEq1:  Iter=  5 NonCon=     1 RMS=8.56D-05 Max=8.30D-04 NDo=     1
 LinEq1:  Iter=  6 NonCon=     1 RMS=2.32D-05 Max=2.68D-04 NDo=     1
 LinEq1:  Iter=  7 NonCon=     1 RMS=6.14D-06 Max=7.87D-05 NDo=     1
 LinEq1:  Iter=  8 NonCon=     1 RMS=1.41D-06 Max=1.52D-05 NDo=     1
 LinEq1:  Iter=  9 NonCon=     1 RMS=3.85D-07 Max=5.44D-06 NDo=     1
 LinEq1:  Iter= 10 NonCon=     1 RMS=9.15D-08 Max=1.36D-06 NDo=     1
 LinEq1:  Iter= 11 NonCon=     1 RMS=1.84D-08 Max=1.35D-07 NDo=     1
 LinEq1:  Iter= 12 NonCon=     1 RMS=4.17D-09 Max=6.12D-08 NDo=     1
 LinEq1:  Iter= 13 NonCon=     1 RMS=7.27D-10 Max=1.03D-08 NDo=     1
 LinEq1:  Iter= 14 NonCon=     1 RMS=1.25D-10 Max=1.54D-09 NDo=     1
 LinEq1:  Iter= 15 NonCon=     0 RMS=2.51D-11 Max=3.13D-10 NDo=     1
 Linear equations converged to 1.000D-10 1.000D-09 after    15 iterations.
 End of Minotr F.D. properties file   721 does not exist.
 End of Minotr F.D. properties file   722 does not exist.
 End of Minotr F.D. properties file   788 does not exist.
 Leave Link 1002 at Wed May  4 19:10:01 2022, MaxMem=   754974720 cpu:              12.1 elap:               3.3
 (Enter /opt/cluster/programs/g16-c.01/g16/l701.exe)
 ... and contract with generalized density number  2.
 Compute integral first derivatives.
 Leave Link  701 at Wed May  4 19:10:01 2022, MaxMem=   754974720 cpu:               0.7 elap:               0.2
 (Enter /opt/cluster/programs/g16-c.01/g16/l702.exe)
 L702 exits ... SP integral derivatives will be done elsewhere.
 Leave Link  702 at Wed May  4 19:10:01 2022, MaxMem=   754974720 cpu:               0.1 elap:               0.0
 (Enter /opt/cluster/programs/g16-c.01/g16/l703.exe)
 Integral derivatives from FoFJK, PRISM(SPDF).
 Compute integral first derivatives, UseDBF=F ICtDFT=           0.
 Calling FoFJK, ICntrl=  10002127 FMM=F ISym2X=1 I1Cent= 0 IOpClX= 0 NMat=1 NMatS=1 NMatT=0.
 FoFJK:  IHMeth= 1 ICntrl=10002127 DoSepK=F KAlg= 0 I1Cent=           0 FoldK=F
 IRaf=         0 NMat=       1 IRICut=       1 DoRegI=T DoRafI=F ISym2E= 1 IDoP0=0 IntGTp=1.
 FoFCou: FMM=F IPFlag=           0 FMFlag=      100000 FMFlg1=         800
         NFxFlg=           0 DoJE=F BraDBF=F KetDBF=F FulRan=T
         wScrn=  0.000000 ICntrl=  10002127 IOpCl=  0 I1Cent=           0 NGrid=           0
         NMat0=    1 NMatS0=      1 NMatT0=    0 NMatD0=    1 NMtDS0=    0 NMtDT0=    0
 Petite list used in FoFCou.
 Leave Link  703 at Wed May  4 19:10:04 2022, MaxMem=   754974720 cpu:              12.6 elap:               3.2
 (Enter /opt/cluster/programs/g16-c.01/g16/l716.exe)
 Dipole        =-1.69222809D-01-4.41671027D-02-3.51933466D-31
 ***** Axes restored to original set *****
 -------------------------------------------------------------------
 Center     Atomic                   Forces (Hartrees/Bohr)
 Number     Number              X              Y              Z
 -------------------------------------------------------------------
      1        7          -0.048001311   -0.000000000    0.000159118
      2        6           0.069959073    0.000000000   -0.025117504
      3       16          -0.021957761   -0.000000000    0.024958386
 -------------------------------------------------------------------
 Cartesian Forces:  Max     0.069959073 RMS     0.031507277
 Leave Link  716 at Wed May  4 19:10:04 2022, MaxMem=   754974720 cpu:               0.2 elap:               0.1
 (Enter /opt/cluster/programs/g16-c.01/g16/l103.exe)

 GradGradGradGradGradGradGradGradGradGradGradGradGradGradGradGradGradGrad
 Berny optimization.
 Using GEDIIS/GDIIS optimizer.
 FormGI is forming the generalized inverse of G from B-inverse, IUseBI=4.
 Internal  Forces:  Max     0.108739921 RMS     0.062781436
 Search for a local minimum.
 Step number   4 out of a maximum of   20
 All quantities printed in internal units (Hartrees-Bohrs-Radians)
 RMS Force = .27909D-03 SwitMx=.10000D-02 MixMth= 2
 Mixed Optimization -- En-DIIS/RFO-DIIS
 Update second derivatives using D2CorX and points    1    2    3    4
 DE= -3.03D-06 DEPred=-2.65D-06 R= 1.14D+00
 TightC=F SS=  1.41D+00  RLast= 3.42D-03 DXNew= 5.0454D-01 1.0264D-02
 Trust test= 1.14D+00 RLast= 3.42D-03 DXMaxT set to 3.00D-01
 The second derivative matrix:
                          R1        R2        A1
           R1           0.95870
           R2           0.08314   0.26564
           A1           0.03549   0.12937   0.31303
 ITU=  1  1  1  0
 Use linear search instead of GDIIS.
     Eigenvalues ---    0.25581   0.968531000.00000
 RFO step:  Lambda=-7.12120764D-08 EMin= 2.55810635D-01
 Quartic linear search produced a step of  0.13772.
 Iteration  1 RMS(Cart)=  0.00018674 RMS(Int)=  0.00000000
 Iteration  2 RMS(Cart)=  0.00000000 RMS(Int)=  0.00000000
 Iteration  1 RMS(Cart)=  0.00000000 RMS(Int)=  0.00000000
 ITry= 1 IFail=0 DXMaxC= 2.54D-04 DCOld= 1.00D+10 DXMaxT= 3.00D-01 DXLimC= 3.00D+00 Rises=F
 ClnCor:  largest displacement from symmetrization is 1.94D-16 for atom     1.
 Variable       Old X    -DE/DX   Delta X   Delta X   Delta X     New X
                                 (Linear)    (Quad)   (Total)
    R1        2.26542  -0.00039  -0.00026  -0.00015  -0.00041   2.26501
    R2        3.27111  -0.00004   0.00039  -0.00039  -0.00000   3.27111
    A1        2.28638   0.10874   0.00000   0.00000   0.00000   2.28638
         Item               Value     Threshold  Converged?
 Maximum Force            0.000393     0.000450     YES
 RMS     Force            0.000279     0.000300     YES
 Maximum Displacement     0.000254     0.001800     YES
 RMS     Displacement     0.000187     0.001200     YES
 Predicted change in Energy=-8.059123D-08
 Optimization completed.
    -- Stationary point found.
                           ----------------------------
                           !   Optimized Parameters   !
                           ! (Angstroms and Degrees)  !
 --------------------------                            --------------------------
 ! Name  Definition              Value          Derivative Info.                !
 --------------------------------------------------------------------------------
 ! R1    R(1,2)                  1.1988         -DE/DX =   -0.0004              !
 ! R2    R(2,3)                  1.731          -DE/DX =    0.0                 !
 ! A1    A(1,2,3)              131.0            -DE/DX =    0.1087              !
 --------------------------------------------------------------------------------
 Lowest energy point so far.  Saving SCF results.
 Largest change from initial coordinates is atom    1       0.037 Angstoms.
 GradGradGradGradGradGradGradGradGradGradGradGradGradGradGradGradGradGrad

 Leave Link  103 at Wed May  4 19:10:04 2022, MaxMem=   754974720 cpu:               0.2 elap:               0.1
 (Enter /opt/cluster/programs/g16-c.01/g16/l202.exe)
                          Input orientation:                          
 ---------------------------------------------------------------------
 Center     Atomic      Atomic             Coordinates (Angstroms)
 Number     Number       Type             X           Y           Z
 ---------------------------------------------------------------------
      1          7           0       -0.011872    0.000000   -1.842666
      2          6           0       -0.017715   -0.000000   -0.643874
      3         16           0        1.283135    0.000000    0.498118
 ---------------------------------------------------------------------
                    Distance matrix (angstroms):
                    1          2          3
     1  N    0.000000
     2  C    1.198807   0.000000
     3  S    2.675129   1.730999   0.000000
 Stoichiometry    CNS(1-)
 Framework group  CS[SG(CNS)]
 Deg. of freedom     3
 Full point group                 CS      NOp   2
 RotChk:  IX=0 Diff= 6.10D-15
 Largest Abelian subgroup         CS      NOp   2
 Largest concise Abelian subgroup C1      NOp   1
                         Standard orientation:                         
 ---------------------------------------------------------------------
 Center     Atomic      Atomic             Coordinates (Angstroms)
 Number     Number       Type             X           Y           Z
 ---------------------------------------------------------------------
      1          7           0        1.085858    1.303731   -0.000000
      2          6           0        0.000000    0.795746   -0.000000
      3         16           0       -0.475063   -0.868787    0.000000
 ---------------------------------------------------------------------
 Rotational constants (GHZ):         169.6037871           6.6254256           6.3763394
 Leave Link  202 at Wed May  4 19:10:04 2022, MaxMem=   754974720 cpu:               0.1 elap:               0.0
 (Enter /opt/cluster/programs/g16-c.01/g16/l601.exe)
 Copying SCF densities to generalized density rwf, IOpCl= 0 IROHF=0.

 **********************************************************************

            Population analysis using the SCF Density.

 **********************************************************************

 Orbital symmetries:
       Occupied  (A') (A') (A') (A') (A') (A") (A') (A') (A') (A')
                 (A') (A") (A') (A") (A')
       Virtual   (A') (A') (A') (A") (A') (A") (A') (A") (A') (A')
                 (A') (A') (A") (A') (A') (A") (A') (A') (A") (A')
                 (A") (A') (A') (A") (A') (A") (A') (A') (A') (A')
                 (A") (A") (A') (A') (A") (A') (A") (A') (A") (A')
                 (A') (A') (A") (A') (A') (A") (A') (A') (A") (A")
                 (A') (A') (A") (A') (A') (A") (A') (A") (A') (A')
                 (A') (A") (A") (A') (A') (A') (A") (A') (A") (A')
                 (A') (A") (A') (A") (A") (A') (A') (A') (A") (A")
                 (A') (A') (A") (A') (A") (A') (A') (A') (A") (A')
                 (A') (A") (A') (A") (A') (A') (A") (A') (A') (A")
                 (A') (A") (A") (A') (A") (A') (A') (A') (A') (A")
                 (A') (A') (A") (A') (A") (A') (A") (A') (A") (A')
                 (A') (A") (A') (A') (A') (A') (A')
 The electronic state is 1-A'.
 Alpha  occ. eigenvalues --  -91.72438 -15.38383 -11.10077  -8.72492  -6.40674
 Alpha  occ. eigenvalues --   -6.40415  -6.40396  -1.01208  -0.73430  -0.42261
 Alpha  occ. eigenvalues --   -0.32854  -0.30233  -0.29757  -0.13469  -0.12334
 Alpha virt. eigenvalues --    0.17798   0.19073   0.21260   0.23205   0.23811
 Alpha virt. eigenvalues --    0.24499   0.24859   0.28775   0.29425   0.30318
 Alpha virt. eigenvalues --    0.32129   0.38047   0.38835   0.41934   0.44737
 Alpha virt. eigenvalues --    0.47075   0.47610   0.52523   0.53194   0.54895
 Alpha virt. eigenvalues --    0.56116   0.59244   0.60089   0.62561   0.65959
 Alpha virt. eigenvalues --    0.69611   0.70273   0.73443   0.74269   0.77077
 Alpha virt. eigenvalues --    0.77727   0.79800   0.81674   0.87064   0.89978
 Alpha virt. eigenvalues --    0.92806   0.96757   0.96802   0.99035   1.01330
 Alpha virt. eigenvalues --    1.04293   1.08534   1.08594   1.13849   1.16044
 Alpha virt. eigenvalues --    1.18642   1.20368   1.23318   1.23623   1.26439
 Alpha virt. eigenvalues --    1.29443   1.35638   1.36886   1.38978   1.44956
 Alpha virt. eigenvalues --    1.48498   1.50379   1.54781   1.55382   1.61542
 Alpha virt. eigenvalues --    1.69574   1.73002   1.78595   1.78647   1.79535
 Alpha virt. eigenvalues --    1.88486   1.88674   1.99047   2.01533   2.04929
 Alpha virt. eigenvalues --    2.11087   2.14104   2.17724   2.28404   2.30488
 Alpha virt. eigenvalues --    2.30625   2.32449   2.37048   2.41666   2.42753
 Alpha virt. eigenvalues --    2.51082   2.53674   2.59456   2.60855   2.61862
 Alpha virt. eigenvalues --    2.62073   2.62548   2.69168   2.74684   2.79143
 Alpha virt. eigenvalues --    2.91295   2.91511   3.06576   3.20216   3.28259
 Alpha virt. eigenvalues --    3.59783   3.69560   3.71833   3.75921   3.76745
 Alpha virt. eigenvalues --    3.84894   3.89467   3.97951   3.98290   4.01629
 Alpha virt. eigenvalues --    4.02515   4.10705   4.22845   4.50575   4.66283
 Alpha virt. eigenvalues --    4.79440   4.87232   5.18436   5.19364   5.44071
 Alpha virt. eigenvalues --    5.44741   5.63550   5.65021   5.80377   5.86135
 Alpha virt. eigenvalues --    6.13626   6.16192   6.25129   6.30394   6.46665
 Alpha virt. eigenvalues --   11.82760  15.85949
          Condensed to atoms (all electrons):
               1          2          3
     1  N    6.887620   0.621416  -0.113294
     2  C    0.621416   5.232038   0.246608
     3  S   -0.113294   0.246608  16.370881
 Mulliken charges:
               1
     1  N   -0.395742
     2  C   -0.100063
     3  S   -0.504195
 Sum of Mulliken charges =  -1.00000
 Mulliken charges with hydrogens summed into heavy atoms:
               1
     1  N   -0.395742
     2  C   -0.100063
     3  S   -0.504195
 Electronic spatial extent (au):  <R**2>=            215.2284
 Charge=             -1.0000 electrons
 Dipole moment (field-independent basis, Debye):
    X=             -0.4504    Y=             -0.0877    Z=             -0.0000  Tot=              0.4588
 Quadrupole moment (field-independent basis, Debye-Ang):
   XX=            -34.0144   YY=            -35.3663   ZZ=            -29.7170
   XY=             -5.5692   XZ=             -0.0000   YZ=             -0.0000
 Traceless Quadrupole moment (field-independent basis, Debye-Ang):
   XX=             -0.9818   YY=             -2.3337   ZZ=              3.3156
   XY=             -5.5692   XZ=             -0.0000   YZ=             -0.0000
 Octapole moment (field-independent basis, Debye-Ang**2):
  XXX=              2.9915  YYY=             -8.9898  ZZZ=              0.0000  XYY=             -5.8631
  XXY=             -1.9509  XXZ=             -0.0000  XZZ=              1.6290  YZZ=              2.0665
  YYZ=             -0.0000  XYZ=             -0.0000
 Hexadecapole moment (field-independent basis, Debye-Ang**3):
 XXXX=           -128.2028 YYYY=           -215.7971 ZZZZ=            -47.9005 XXXY=            -59.3958
 XXXZ=             -0.0000 YYYX=            -55.0004 YYYZ=             -0.0000 ZZZX=             -0.0000
 ZZZY=             -0.0000 XXYY=            -63.4832 XXZZ=            -28.6667 YYZZ=            -45.2694
 XXYZ=             -0.0000 YYXZ=             -0.0000 ZZXY=            -17.9175
 N-N= 7.004258365947D+01 E-N=-1.310508125691D+03  KE= 4.896452908608D+02
 Symmetry A'   KE= 4.486004796798D+02
 Symmetry A"   KE= 4.104481118098D+01
 No NMR shielding tensors so no spin-rotation constants.
 Leave Link  601 at Wed May  4 19:10:05 2022, MaxMem=   754974720 cpu:               0.7 elap:               0.2
 (Enter /opt/cluster/programs/g16-c.01/g16/l9999.exe)
 Unable to Open any file for archive entry.
 1\1\GINC-NODE41\FOpt\RMP2-FC\Aug-CC-pVTZ\C1N1S1(1-)\TOEPFER\04-May-202
 2\0\\#P MP2/aug-cc-pVTZ scf(maxcycle=200) opt geom(AddGIC)\\Gaussian i
 nput\\-1,1\N,-0.0118717985,0.,-1.8426661251\C,-0.0177150666,0.,-0.6438
 736732\S,1.2831353271,0.,0.4981178515\\Version=ES64L-G16RevC.01\State=
 1-A'\HF=-489.8930343\MP2=-490.4318414\RMSD=5.303e-09\RMSF=3.151e-02\Di
 pole=-0.032539,0.,0.171838\PG=CS [SG(C1N1S1)]\\@
 The archive entry for this job was punched.


 SEE YOU NOW,
 YOUR BAIT OF FALSEHOOD TAKES THIS CARP OF TRUTH.
 AND THUS DO WE OF WISDOM AND OF REACH...
 BY INDIRECTIONS FIND DIRECTIONS OUT.    -- HAMLET, II, 1
 Job cpu time:       0 days  0 hours  4 minutes 53.6 seconds.
 Elapsed time:       0 days  0 hours  1 minutes 20.2 seconds.
 File lengths (MBytes):  RWF=     15 Int=      0 D2E=      0 Chk=      3 Scr=      1
 Normal termination of Gaussian 16 at Wed May  4 19:10:05 2022.
