 Entering Gaussian System, Link 0=/opt/cluster/programs/g16-c.01/g16/g16
 Input=/scratch/toepfer/jobs/tmp.5739914/gaussian_6_scn.com
 Output=/scratch/toepfer/jobs/tmp.5739914/gaussian_6_scn.out
 Initial command:
 /opt/cluster/programs/g16-c.01/g16/l1.exe "/scratch/toepfer/jobs/tmp.5739914/Gau-146291.inp" -scrdir="/scratch/toepfer/jobs/tmp.5739914/"
 Entering Link 1 = /opt/cluster/programs/g16-c.01/g16/l1.exe PID=    146292.
  
 Copyright (c) 1988-2019, Gaussian, Inc.  All Rights Reserved.
  
 This is part of the Gaussian(R) 16 program.  It is based on
 the Gaussian(R) 09 system (copyright 2009, Gaussian, Inc.),
 the Gaussian(R) 03 system (copyright 2003, Gaussian, Inc.),
 the Gaussian(R) 98 system (copyright 1998, Gaussian, Inc.),
 the Gaussian(R) 94 system (copyright 1995, Gaussian, Inc.),
 the Gaussian 92(TM) system (copyright 1992, Gaussian, Inc.),
 the Gaussian 90(TM) system (copyright 1990, Gaussian, Inc.),
 the Gaussian 88(TM) system (copyright 1988, Gaussian, Inc.),
 the Gaussian 86(TM) system (copyright 1986, Carnegie Mellon
 University), and the Gaussian 82(TM) system (copyright 1983,
 Carnegie Mellon University). Gaussian is a federally registered
 trademark of Gaussian, Inc.
  
 This software contains proprietary and confidential information,
 including trade secrets, belonging to Gaussian, Inc.
  
 This software is provided under written license and may be
 used, copied, transmitted, or stored only in accord with that
 written license.
  
 The following legend is applicable only to US Government
 contracts under FAR:
  
                    RESTRICTED RIGHTS LEGEND
  
 Use, reproduction and disclosure by the US Government is
 subject to restrictions as set forth in subparagraphs (a)
 and (c) of the Commercial Computer Software - Restricted
 Rights clause in FAR 52.227-19.
  
 Gaussian, Inc.
 340 Quinnipiac St., Bldg. 40, Wallingford CT 06492
  
  
 ---------------------------------------------------------------
 Warning -- This program may not be used in any manner that
 competes with the business of Gaussian, Inc. or will provide
 assistance to any competitor of Gaussian, Inc.  The licensee
 of this program is prohibited from giving any competitor of
 Gaussian, Inc. access to this program.  By using this program,
 the user acknowledges that Gaussian, Inc. is engaged in the
 business of creating and licensing software in the field of
 computational chemistry and represents and warrants to the
 licensee that it is not a competitor of Gaussian, Inc. and that
 it will not use this program in any manner prohibited above.
 ---------------------------------------------------------------
  

 Cite this work as:
 Gaussian 16, Revision C.01,
 M. J. Frisch, G. W. Trucks, H. B. Schlegel, G. E. Scuseria, 
 M. A. Robb, J. R. Cheeseman, G. Scalmani, V. Barone, 
 G. A. Petersson, H. Nakatsuji, X. Li, M. Caricato, A. V. Marenich, 
 J. Bloino, B. G. Janesko, R. Gomperts, B. Mennucci, H. P. Hratchian, 
 J. V. Ortiz, A. F. Izmaylov, J. L. Sonnenberg, D. Williams-Young, 
 F. Ding, F. Lipparini, F. Egidi, J. Goings, B. Peng, A. Petrone, 
 T. Henderson, D. Ranasinghe, V. G. Zakrzewski, J. Gao, N. Rega, 
 G. Zheng, W. Liang, M. Hada, M. Ehara, K. Toyota, R. Fukuda, 
 J. Hasegawa, M. Ishida, T. Nakajima, Y. Honda, O. Kitao, H. Nakai, 
 T. Vreven, K. Throssell, J. A. Montgomery, Jr., J. E. Peralta, 
 F. Ogliaro, M. J. Bearpark, J. J. Heyd, E. N. Brothers, K. N. Kudin, 
 V. N. Staroverov, T. A. Keith, R. Kobayashi, J. Normand, 
 K. Raghavachari, A. P. Rendell, J. C. Burant, S. S. Iyengar, 
 J. Tomasi, M. Cossi, J. M. Millam, M. Klene, C. Adamo, R. Cammi, 
 J. W. Ochterski, R. L. Martin, K. Morokuma, O. Farkas, 
 J. B. Foresman, and D. J. Fox, Gaussian, Inc., Wallingford CT, 2019.
 
 ******************************************
 Gaussian 16:  ES64L-G16RevC.01  3-Jul-2019
                 4-May-2022 
 ******************************************
 %nproc=4
 Will use up to    4 processors via shared memory.
 %mem=5760MB
 %chk=gaussian_6_scn.chk
 -----------------------------------------------------
 #P MP2/aug-cc-pVTZ scf(maxcycle=200) opt geom(AddGIC)
 -----------------------------------------------------
 1/18=20,19=15,38=1,145=903/1,3;
 2/9=110,12=2,17=6,18=5,40=1/2;
 3/5=16,6=1,7=10,11=9,25=1,30=1,71=1/1,2,3;
 4//1;
 5/5=2,7=200,38=5/2;
 8/6=4,10=1/1;
 9/15=2,16=-3/6;
 10/5=1/2;
 6/7=2,8=2,9=2,10=2/1;
 7/12=2/1,2,3,16;
 1/18=20,19=15,145=903/3(2);
 2/9=110/2;
 99//99;
 2/9=110/2;
 3/5=16,6=1,7=10,11=9,25=1,30=1,71=1/1,2,3;
 4/5=5,16=3,69=1/1;
 5/5=2,7=200,38=5/2;
 8/6=4,10=1/1;
 9/15=2,16=-3/6;
 10/5=1/2;
 7/12=2/1,2,3,16;
 1/18=20,19=15,145=903/3(-8);
 2/9=110/2;
 6/7=2,8=2,9=2,10=2/1;
 99/9=10/99;
 Leave Link    1 at Wed May  4 19:05:21 2022, MaxMem=   754974720 cpu:               0.1 elap:               0.0
 (Enter /opt/cluster/programs/g16-c.01/g16/l101.exe)
 --------------
 Gaussian input
 --------------
 Symbolic Z-matrix:
 Charge = -1 Multiplicity = 1
 N                     0.        0.       -1.82094 
 C                     0.        0.       -0.62859 
 S                     0.70196   0.        0.87676 
 
 Initializing the GIC definitions file.
 Number of initial coordinates =     3
 Number of input entries/lines =     1
 Number of additional coordinates =     0
 Number of removed coordinates =     0
 Number of frozen coordinates =     1
 Number of final active and frozen coordinates =     3
 ITRead=  0  0  0
 MicOpt= -1 -1 -1
 NAtoms=      3 NQM=        3 NQMF=       0 NMMI=      0 NMMIF=      0
                NMic=       0 NMicF=      0.
                    Isotopes and Nuclear Properties:
 (Nuclear quadrupole moments (NQMom) in fm**2, nuclear magnetic moments (NMagM)
  in nuclear magnetons)

  Atom         1           2           3
 IAtWgt=          14          12          32
 AtmWgt=  14.0030740  12.0000000  31.9720718
 NucSpn=           2           0           0
 AtZEff=  -0.0000000  -0.0000000  -0.0000000
 NQMom=    2.0440000   0.0000000   0.0000000
 NMagM=    0.4037610   0.0000000   0.0000000
 AtZNuc=   7.0000000   6.0000000  16.0000000
 Leave Link  101 at Wed May  4 19:05:22 2022, MaxMem=   754974720 cpu:               3.0 elap:               0.8
 (Enter /opt/cluster/programs/g16-c.01/g16/l103.exe)

 GradGradGradGradGradGradGradGradGradGradGradGradGradGradGradGradGradGrad
 Berny optimization.
 Initialization pass.
                           ----------------------------
                           !    Initial Parameters    !
                           ! (Angstroms and Degrees)  !
 --------------------------                            --------------------------
 ! Name  Definition              Value          Derivative Info.                !
 --------------------------------------------------------------------------------
 ! R1    R(1,2)                  1.1924         estimate D2E/DX2                !
 ! R2    R(2,3)                  1.661          estimate D2E/DX2                !
 ! A1    A(1,2,3)              155.0            Frozen                          !
 --------------------------------------------------------------------------------
 Trust Radius=3.00D-01 FncErr=1.00D-07 GrdErr=1.00D-07 EigMax=2.50D+02 EigMin=1.00D-04
 Number of steps in this run=     20 maximum allowed number of steps=    100.
 GradGradGradGradGradGradGradGradGradGradGradGradGradGradGradGradGradGrad

 Leave Link  103 at Wed May  4 19:05:22 2022, MaxMem=   754974720 cpu:               0.1 elap:               0.0
 (Enter /opt/cluster/programs/g16-c.01/g16/l202.exe)
                          Input orientation:                          
 ---------------------------------------------------------------------
 Center     Atomic      Atomic             Coordinates (Angstroms)
 Number     Number       Type             X           Y           Z
 ---------------------------------------------------------------------
      1          7           0        0.000000    0.000000   -1.820943
      2          6           0        0.000000    0.000000   -0.628586
      3         16           0        0.701955    0.000000    0.876762
 ---------------------------------------------------------------------
                    Distance matrix (angstroms):
                    1          2          3
     1  N    0.000000
     2  C    1.192357   0.000000
     3  S    2.787536   1.660968   0.000000
 Stoichiometry    CNS(1-)
 Framework group  CS[SG(CNS)]
 Deg. of freedom     3
 Full point group                 CS      NOp   2
 Largest Abelian subgroup         CS      NOp   2
 Largest concise Abelian subgroup C1      NOp   1
                         Standard orientation:                         
 ---------------------------------------------------------------------
 Center     Atomic      Atomic             Coordinates (Angstroms)
 Number     Number       Type             X           Y           Z
 ---------------------------------------------------------------------
      1          7           0        0.692598    1.637319   -0.000000
      2          6           0       -0.000000    0.666740   -0.000000
      3         16           0       -0.303012   -0.966355    0.000000
 ---------------------------------------------------------------------
 Rotational constants (GHZ):         635.1527993           6.1942818           6.1344560
 Leave Link  202 at Wed May  4 19:05:22 2022, MaxMem=   754974720 cpu:               0.2 elap:               0.1
 (Enter /opt/cluster/programs/g16-c.01/g16/l301.exe)
 Standard basis: Aug-CC-pVTZ (5D, 7F)
 Ernie: Thresh=  0.10000D-02 Tol=  0.10000D-05 Strict=F.
 Ernie:  19 primitive shells out of 124 were deleted.
 There are   114 symmetry adapted cartesian basis functions of A'  symmetry.
 There are    55 symmetry adapted cartesian basis functions of A"  symmetry.
 There are    93 symmetry adapted basis functions of A'  symmetry.
 There are    49 symmetry adapted basis functions of A"  symmetry.
   142 basis functions,   258 primitive gaussians,   169 cartesian basis functions
    15 alpha electrons       15 beta electrons
       nuclear repulsion energy        70.4868436781 Hartrees.
 IExCor=    0 DFT=F Ex=HF Corr=None ExCW=0 ScaHFX=  1.000000
 ScaDFX=  1.000000  1.000000  1.000000  1.000000 ScalE2=  1.000000  1.000000
 IRadAn=      5 IRanWt=     -1 IRanGd=            0 ICorTp=0 IEmpDi=  4
 NAtoms=    3 NActive=    3 NUniq=    3 SFac= 1.00D+00 NAtFMM=   60 NAOKFM=F Big=F
 Integral buffers will be    131072 words long.
 Raffenetti 1 integral format.
 Two-electron integral symmetry is turned on.
 Leave Link  301 at Wed May  4 19:05:22 2022, MaxMem=   754974720 cpu:               0.2 elap:               0.1
 (Enter /opt/cluster/programs/g16-c.01/g16/l302.exe)
 NPDir=0 NMtPBC=     1 NCelOv=     1 NCel=       1 NClECP=     1 NCelD=      1
         NCelK=      1 NCelE2=     1 NClLst=     1 CellRange=     0.0.
 One-electron integrals computed using PRISM.
 One-electron integral symmetry used in STVInt
 NBasis=   142 RedAO= T EigKep=  1.03D-04  NBF=    93    49
 NBsUse=   142 1.00D-06 EigRej= -1.00D+00 NBFU=    93    49
 Leave Link  302 at Wed May  4 19:05:23 2022, MaxMem=   754974720 cpu:               4.2 elap:               1.4
 (Enter /opt/cluster/programs/g16-c.01/g16/l303.exe)
 DipDrv:  MaxL=1.
 Leave Link  303 at Wed May  4 19:05:23 2022, MaxMem=   754974720 cpu:               0.2 elap:               0.0
 (Enter /opt/cluster/programs/g16-c.01/g16/l401.exe)
 ExpMin= 3.51D-02 ExpMax= 3.74D+05 ExpMxC= 1.18D+03 IAcc=3 IRadAn=         5 AccDes= 0.00D+00
 Harris functional with IExCor=  205 and IRadAn=       5 diagonalized for initial guess.
 HarFok:  IExCor=  205 AccDes= 0.00D+00 IRadAn=         5 IDoV= 1 UseB2=F ITyADJ=14
 ICtDFT=  3500011 ScaDFX=  1.000000  1.000000  1.000000  1.000000
 FoFCou: FMM=F IPFlag=           0 FMFlag=      100000 FMFlg1=           0
         NFxFlg=           0 DoJE=T BraDBF=F KetDBF=T FulRan=T
         wScrn=  0.000000 ICntrl=       500 IOpCl=  0 I1Cent=   200000004 NGrid=           0
         NMat0=    1 NMatS0=      1 NMatT0=    0 NMatD0=    1 NMtDS0=    0 NMtDT0=    0
 Petite list used in FoFCou.
 Harris En= -489.755825491204    
 JPrj=0 DoOrth=F DoCkMO=F.
 Initial guess orbital symmetries:
       Occupied  (A') (A') (A') (A') (A') (A") (A') (A') (A') (A')
                 (A') (A") (A') (A") (A')
       Virtual   (A') (A") (A') (A') (A') (A") (A') (A') (A") (A')
                 (A') (A") (A') (A') (A") (A') (A') (A") (A') (A')
                 (A") (A') (A') (A") (A') (A') (A") (A') (A') (A")
                 (A') (A') (A") (A') (A") (A') (A") (A') (A') (A")
                 (A') (A') (A") (A') (A') (A") (A') (A") (A') (A')
                 (A") (A') (A") (A') (A') (A") (A') (A") (A') (A')
                 (A") (A') (A') (A") (A') (A") (A') (A") (A') (A')
                 (A') (A") (A') (A") (A') (A') (A") (A') (A") (A')
                 (A") (A') (A') (A") (A') (A") (A') (A") (A') (A')
                 (A') (A") (A') (A') (A") (A') (A') (A") (A') (A")
                 (A') (A") (A') (A") (A') (A') (A") (A') (A') (A")
                 (A') (A') (A") (A') (A') (A") (A") (A') (A') (A")
                 (A') (A') (A") (A') (A') (A') (A')
 The electronic state of the initial guess is 1-A'.
 Leave Link  401 at Wed May  4 19:05:24 2022, MaxMem=   754974720 cpu:               1.2 elap:               0.3
 (Enter /opt/cluster/programs/g16-c.01/g16/l502.exe)
 Keep R1 ints in memory in symmetry-blocked form, NReq=77616006.
 FoFCou: FMM=F IPFlag=           0 FMFlag=           0 FMFlg1=           0
         NFxFlg=           0 DoJE=F BraDBF=F KetDBF=F FulRan=T
         wScrn=  0.000000 ICntrl=       600 IOpCl=  0 I1Cent=           0 NGrid=           0
         NMat0=    1 NMatS0=  10153 NMatT0=    0 NMatD0=    1 NMtDS0=    0 NMtDT0=    0
 Petite list used in FoFCou.
 Closed shell SCF:
 Using DIIS extrapolation, IDIIS=  1040.
 NGot=   754974720 LenX=   728846748 LenY=   728817746
 Requested convergence on RMS density matrix=1.00D-08 within 200 cycles.
 Requested convergence on MAX density matrix=1.00D-06.
 Requested convergence on             energy=1.00D-06.
 No special actions if energy rises.

 Cycle   1  Pass 1  IDiag  1:
 E= -489.741585403909    
 DIIS: error= 4.49D-02 at cycle   1 NSaved=   1.
 NSaved= 1 IEnMin= 1 EnMin= -489.741585403909     IErMin= 1 ErrMin= 4.49D-02
 ErrMax= 4.49D-02  0.00D+00 EMaxC= 1.00D-01 BMatC= 3.49D-01 BMatP= 3.49D-01
 IDIUse=3 WtCom= 5.51D-01 WtEn= 4.49D-01
 Coeff-Com:  0.100D+01
 Coeff-En:   0.100D+01
 Coeff:      0.100D+01
 Gap=     0.534 Goal=   None    Shift=    0.000
 GapD=    0.534 DampG=2.000 DampE=0.500 DampFc=1.0000 IDamp=-1.
 RMSDP=3.39D-03 MaxDP=6.86D-02              OVMax= 2.20D-01

 Cycle   2  Pass 1  IDiag  1:
 E= -489.856037262646     Delta-E=       -0.114451858738 Rises=F Damp=F
 DIIS: error= 2.22D-02 at cycle   2 NSaved=   2.
 NSaved= 2 IEnMin= 2 EnMin= -489.856037262646     IErMin= 2 ErrMin= 2.22D-02
 ErrMax= 2.22D-02  0.00D+00 EMaxC= 1.00D-01 BMatC= 7.67D-02 BMatP= 3.49D-01
 IDIUse=3 WtCom= 7.78D-01 WtEn= 2.22D-01
 Coeff-Com:  0.260D+00 0.740D+00
 Coeff-En:   0.121D+00 0.879D+00
 Coeff:      0.229D+00 0.771D+00
 Gap=     0.374 Goal=   None    Shift=    0.000
 RMSDP=1.47D-03 MaxDP=4.23D-02 DE=-1.14D-01 OVMax= 9.31D-02

 Cycle   3  Pass 1  IDiag  1:
 E= -489.914724248309     Delta-E=       -0.058686985662 Rises=F Damp=F
 DIIS: error= 1.48D-02 at cycle   3 NSaved=   3.
 NSaved= 3 IEnMin= 3 EnMin= -489.914724248309     IErMin= 3 ErrMin= 1.48D-02
 ErrMax= 1.48D-02  0.00D+00 EMaxC= 1.00D-01 BMatC= 1.60D-02 BMatP= 7.67D-02
 IDIUse=3 WtCom= 8.52D-01 WtEn= 1.48D-01
 Coeff-Com: -0.156D-01 0.295D+00 0.721D+00
 Coeff-En:   0.000D+00 0.412D-01 0.959D+00
 Coeff:     -0.133D-01 0.257D+00 0.756D+00
 Gap=     0.317 Goal=   None    Shift=    0.000
 RMSDP=5.94D-04 MaxDP=1.37D-02 DE=-5.87D-02 OVMax= 5.12D-02

 Cycle   4  Pass 1  IDiag  1:
 E= -489.928610503776     Delta-E=       -0.013886255468 Rises=F Damp=F
 DIIS: error= 4.92D-03 at cycle   4 NSaved=   4.
 NSaved= 4 IEnMin= 4 EnMin= -489.928610503776     IErMin= 4 ErrMin= 4.92D-03
 ErrMax= 4.92D-03  0.00D+00 EMaxC= 1.00D-01 BMatC= 1.23D-03 BMatP= 1.60D-02
 IDIUse=3 WtCom= 9.51D-01 WtEn= 4.92D-02
 Coeff-Com: -0.142D-01 0.529D-01 0.288D+00 0.673D+00
 Coeff-En:   0.000D+00 0.000D+00 0.000D+00 0.100D+01
 Coeff:     -0.135D-01 0.503D-01 0.274D+00 0.689D+00
 Gap=     0.308 Goal=   None    Shift=    0.000
 RMSDP=1.48D-04 MaxDP=3.16D-03 DE=-1.39D-02 OVMax= 1.33D-02

 Cycle   5  Pass 1  IDiag  1:
 E= -489.929819991229     Delta-E=       -0.001209487452 Rises=F Damp=F
 DIIS: error= 9.21D-04 at cycle   5 NSaved=   5.
 NSaved= 5 IEnMin= 5 EnMin= -489.929819991229     IErMin= 5 ErrMin= 9.21D-04
 ErrMax= 9.21D-04  0.00D+00 EMaxC= 1.00D-01 BMatC= 6.45D-05 BMatP= 1.23D-03
 IDIUse=3 WtCom= 9.91D-01 WtEn= 9.21D-03
 Coeff-Com:  0.234D-02-0.394D-01-0.933D-01 0.400D-01 0.109D+01
 Coeff-En:   0.000D+00 0.000D+00 0.000D+00 0.000D+00 0.100D+01
 Coeff:      0.231D-02-0.390D-01-0.925D-01 0.396D-01 0.109D+01
 Gap=     0.308 Goal=   None    Shift=    0.000
 RMSDP=8.53D-05 MaxDP=1.70D-03 DE=-1.21D-03 OVMax= 6.35D-03

 Cycle   6  Pass 1  IDiag  1:
 E= -489.929980670080     Delta-E=       -0.000160678852 Rises=F Damp=F
 DIIS: error= 3.34D-04 at cycle   6 NSaved=   6.
 NSaved= 6 IEnMin= 6 EnMin= -489.929980670080     IErMin= 6 ErrMin= 3.34D-04
 ErrMax= 3.34D-04  0.00D+00 EMaxC= 1.00D-01 BMatC= 6.52D-06 BMatP= 6.45D-05
 IDIUse=3 WtCom= 9.97D-01 WtEn= 3.34D-03
 Coeff-Com:  0.108D-02-0.102D-01-0.324D-01-0.631D-01 0.913D-01 0.101D+01
 Coeff-En:   0.000D+00 0.000D+00 0.000D+00 0.000D+00 0.000D+00 0.100D+01
 Coeff:      0.107D-02-0.101D-01-0.323D-01-0.629D-01 0.910D-01 0.101D+01
 Gap=     0.309 Goal=   None    Shift=    0.000
 RMSDP=3.28D-05 MaxDP=5.90D-04 DE=-1.61D-04 OVMax= 2.94D-03

 Cycle   7  Pass 1  IDiag  1:
 E= -489.930002503815     Delta-E=       -0.000021833734 Rises=F Damp=F
 DIIS: error= 1.29D-04 at cycle   7 NSaved=   7.
 NSaved= 7 IEnMin= 7 EnMin= -489.930002503815     IErMin= 7 ErrMin= 1.29D-04
 ErrMax= 1.29D-04  0.00D+00 EMaxC= 1.00D-01 BMatC= 1.04D-06 BMatP= 6.52D-06
 IDIUse=3 WtCom= 9.99D-01 WtEn= 1.29D-03
 Coeff-Com: -0.184D-03 0.501D-02 0.140D-01-0.913D-02-0.135D+00-0.134D+00
 Coeff-Com:  0.126D+01
 Coeff-En:   0.000D+00 0.000D+00 0.000D+00 0.000D+00 0.000D+00 0.000D+00
 Coeff-En:   0.100D+01
 Coeff:     -0.183D-03 0.500D-02 0.140D-01-0.912D-02-0.135D+00-0.134D+00
 Coeff:      0.126D+01
 Gap=     0.309 Goal=   None    Shift=    0.000
 RMSDP=1.87D-05 MaxDP=4.77D-04 DE=-2.18D-05 OVMax= 1.66D-03

 Cycle   8  Pass 1  IDiag  1:
 E= -489.930007206962     Delta-E=       -0.000004703147 Rises=F Damp=F
 DIIS: error= 6.51D-05 at cycle   8 NSaved=   8.
 NSaved= 8 IEnMin= 8 EnMin= -489.930007206962     IErMin= 8 ErrMin= 6.51D-05
 ErrMax= 6.51D-05  0.00D+00 EMaxC= 1.00D-01 BMatC= 1.43D-07 BMatP= 1.04D-06
 IDIUse=1 WtCom= 1.00D+00 WtEn= 0.00D+00
 Coeff-Com: -0.960D-04-0.607D-03-0.947D-03 0.844D-02 0.441D-01-0.396D-01
 Coeff-Com: -0.525D+00 0.151D+01
 Coeff:     -0.960D-04-0.607D-03-0.947D-03 0.844D-02 0.441D-01-0.396D-01
 Coeff:     -0.525D+00 0.151D+01
 Gap=     0.309 Goal=   None    Shift=    0.000
 RMSDP=9.40D-06 MaxDP=3.27D-04 DE=-4.70D-06 OVMax= 7.51D-04

 Cycle   9  Pass 1  IDiag  1:
 E= -489.930008141949     Delta-E=       -0.000000934987 Rises=F Damp=F
 DIIS: error= 3.56D-05 at cycle   9 NSaved=   9.
 NSaved= 9 IEnMin= 9 EnMin= -489.930008141949     IErMin= 9 ErrMin= 3.56D-05
 ErrMax= 3.56D-05  0.00D+00 EMaxC= 1.00D-01 BMatC= 2.89D-08 BMatP= 1.43D-07
 IDIUse=1 WtCom= 1.00D+00 WtEn= 0.00D+00
 Coeff-Com:  0.681D-04-0.478D-03-0.155D-02-0.260D-02 0.403D-03 0.341D-01
 Coeff-Com:  0.564D-01-0.684D+00 0.160D+01
 Coeff:      0.681D-04-0.478D-03-0.155D-02-0.260D-02 0.403D-03 0.341D-01
 Coeff:      0.564D-01-0.684D+00 0.160D+01
 Gap=     0.309 Goal=   None    Shift=    0.000
 RMSDP=4.53D-06 MaxDP=1.43D-04 DE=-9.35D-07 OVMax= 3.58D-04

 Cycle  10  Pass 1  IDiag  1:
 E= -489.930008377378     Delta-E=       -0.000000235429 Rises=F Damp=F
 DIIS: error= 1.46D-05 at cycle  10 NSaved=  10.
 NSaved=10 IEnMin=10 EnMin= -489.930008377378     IErMin=10 ErrMin= 1.46D-05
 ErrMax= 1.46D-05  0.00D+00 EMaxC= 1.00D-01 BMatC= 5.69D-09 BMatP= 2.89D-08
 IDIUse=1 WtCom= 1.00D+00 WtEn= 0.00D+00
 Coeff-Com:  0.192D-04 0.221D-03 0.488D-03-0.137D-02-0.118D-01 0.369D-03
 Coeff-Com:  0.127D+00-0.236D+00-0.408D+00 0.153D+01
 Coeff:      0.192D-04 0.221D-03 0.488D-03-0.137D-02-0.118D-01 0.369D-03
 Coeff:      0.127D+00-0.236D+00-0.408D+00 0.153D+01
 Gap=     0.309 Goal=   None    Shift=    0.000
 RMSDP=2.16D-06 MaxDP=4.68D-05 DE=-2.35D-07 OVMax= 1.77D-04

 Cycle  11  Pass 1  IDiag  1:
 E= -489.930008424296     Delta-E=       -0.000000046918 Rises=F Damp=F
 DIIS: error= 2.51D-06 at cycle  11 NSaved=  11.
 NSaved=11 IEnMin=11 EnMin= -489.930008424296     IErMin=11 ErrMin= 2.51D-06
 ErrMax= 2.51D-06  0.00D+00 EMaxC= 1.00D-01 BMatC= 4.43D-10 BMatP= 5.69D-09
 IDIUse=1 WtCom= 1.00D+00 WtEn= 0.00D+00
 Coeff-Com: -0.145D-04 0.201D-04 0.645D-04 0.861D-03 0.279D-02-0.417D-02
 Coeff-Com: -0.396D-01 0.155D+00-0.130D+00-0.298D+00 0.131D+01
 Coeff:     -0.145D-04 0.201D-04 0.645D-04 0.861D-03 0.279D-02-0.417D-02
 Coeff:     -0.396D-01 0.155D+00-0.130D+00-0.298D+00 0.131D+01
 Gap=     0.309 Goal=   None    Shift=    0.000
 RMSDP=4.32D-07 MaxDP=1.19D-05 DE=-4.69D-08 OVMax= 3.29D-05

 Cycle  12  Pass 1  IDiag  1:
 E= -489.930008426380     Delta-E=       -0.000000002084 Rises=F Damp=F
 DIIS: error= 6.03D-07 at cycle  12 NSaved=  12.
 NSaved=12 IEnMin=12 EnMin= -489.930008426380     IErMin=12 ErrMin= 6.03D-07
 ErrMax= 6.03D-07  0.00D+00 EMaxC= 1.00D-01 BMatC= 2.61D-11 BMatP= 4.43D-10
 IDIUse=1 WtCom= 1.00D+00 WtEn= 0.00D+00
 Coeff-Com:  0.295D-06-0.190D-04-0.591D-04 0.145D-04 0.771D-03 0.761D-04
 Coeff-Com: -0.587D-02 0.327D-02 0.419D-01-0.790D-01-0.171D+00 0.121D+01
 Coeff:      0.295D-06-0.190D-04-0.591D-04 0.145D-04 0.771D-03 0.761D-04
 Coeff:     -0.587D-02 0.327D-02 0.419D-01-0.790D-01-0.171D+00 0.121D+01
 Gap=     0.309 Goal=   None    Shift=    0.000
 RMSDP=1.58D-07 MaxDP=6.58D-06 DE=-2.08D-09 OVMax= 7.97D-06

 Cycle  13  Pass 1  IDiag  1:
 E= -489.930008426503     Delta-E=       -0.000000000123 Rises=F Damp=F
 DIIS: error= 2.45D-07 at cycle  13 NSaved=  13.
 NSaved=13 IEnMin=13 EnMin= -489.930008426503     IErMin=13 ErrMin= 2.45D-07
 ErrMax= 2.45D-07  0.00D+00 EMaxC= 1.00D-01 BMatC= 2.38D-12 BMatP= 2.61D-11
 IDIUse=1 WtCom= 1.00D+00 WtEn= 0.00D+00
 Coeff-Com:  0.157D-05 0.954D-06 0.280D-05-0.988D-04-0.448D-03 0.295D-03
 Coeff-Com:  0.580D-02-0.172D-01 0.549D-02 0.471D-01-0.105D+00-0.204D+00
 Coeff-Com:  0.127D+01
 Coeff:      0.157D-05 0.954D-06 0.280D-05-0.988D-04-0.448D-03 0.295D-03
 Coeff:      0.580D-02-0.172D-01 0.549D-02 0.471D-01-0.105D+00-0.204D+00
 Coeff:      0.127D+01
 Gap=     0.309 Goal=   None    Shift=    0.000
 RMSDP=5.59D-08 MaxDP=2.37D-06 DE=-1.23D-10 OVMax= 3.06D-06

 Cycle  14  Pass 1  IDiag  1:
 E= -489.930008426516     Delta-E=       -0.000000000013 Rises=F Damp=F
 DIIS: error= 6.74D-08 at cycle  14 NSaved=  14.
 NSaved=14 IEnMin=14 EnMin= -489.930008426516     IErMin=14 ErrMin= 6.74D-08
 ErrMax= 6.74D-08  0.00D+00 EMaxC= 1.00D-01 BMatC= 1.42D-13 BMatP= 2.38D-12
 IDIUse=1 WtCom= 1.00D+00 WtEn= 0.00D+00
 Coeff-Com: -0.444D-06 0.630D-06 0.266D-05 0.254D-04 0.803D-04-0.536D-04
 Coeff-Com: -0.130D-02 0.430D-02-0.305D-02-0.930D-02 0.382D-01-0.669D-02
 Coeff-Com: -0.386D+00 0.136D+01
 Coeff:     -0.444D-06 0.630D-06 0.266D-05 0.254D-04 0.803D-04-0.536D-04
 Coeff:     -0.130D-02 0.430D-02-0.305D-02-0.930D-02 0.382D-01-0.669D-02
 Coeff:     -0.386D+00 0.136D+01
 Gap=     0.309 Goal=   None    Shift=    0.000
 RMSDP=1.18D-08 MaxDP=3.68D-07 DE=-1.31D-11 OVMax= 7.76D-07

 Cycle  15  Pass 1  IDiag  1:
 E= -489.930008426514     Delta-E=        0.000000000002 Rises=F Damp=F
 DIIS: error= 1.28D-08 at cycle  15 NSaved=  15.
 NSaved=15 IEnMin=14 EnMin= -489.930008426516     IErMin=15 ErrMin= 1.28D-08
 ErrMax= 1.28D-08  0.00D+00 EMaxC= 1.00D-01 BMatC= 8.99D-15 BMatP= 1.42D-13
 IDIUse=1 WtCom= 1.00D+00 WtEn= 0.00D+00
 Coeff-Com:  0.864D-07-0.199D-06-0.101D-05-0.515D-05-0.843D-05 0.983D-05
 Coeff-Com:  0.189D-03-0.759D-03 0.947D-03 0.111D-02-0.983D-02 0.145D-01
 Coeff-Com:  0.811D-01-0.537D+00 0.145D+01
 Coeff:      0.864D-07-0.199D-06-0.101D-05-0.515D-05-0.843D-05 0.983D-05
 Coeff:      0.189D-03-0.759D-03 0.947D-03 0.111D-02-0.983D-02 0.145D-01
 Coeff:      0.811D-01-0.537D+00 0.145D+01
 Gap=     0.309 Goal=   None    Shift=    0.000
 RMSDP=2.46D-09 MaxDP=5.00D-08 DE= 2.16D-12 OVMax= 1.55D-07

 SCF Done:  E(RHF) =  -489.930008427     A.U. after   15 cycles
            NFock= 15  Conv=0.25D-08     -V/T= 2.0004
 KE= 4.897117170348D+02 PE=-1.311463255198D+03 EE= 2.613346860583D+02
 Leave Link  502 at Wed May  4 19:05:27 2022, MaxMem=   754974720 cpu:              12.0 elap:               3.4
 (Enter /opt/cluster/programs/g16-c.01/g16/l801.exe)
 ExpMin= 3.51D-02 ExpMax= 3.74D+05 ExpMxC= 1.18D+03 IAcc=3 IRadAn=         5 AccDes= 0.00D+00
 HarFok:  IExCor=  205 AccDes= 0.00D+00 IRadAn=         5 IDoV=-2 UseB2=F ITyADJ=14
 ICtDFT= 12500011 ScaDFX=  1.000000  1.000000  1.000000  1.000000
 Largest valence mixing into a core orbital is  5.36D-04
 Largest core mixing into a valence orbital is  1.39D-04
 Range of M.O.s used for correlation:     8   142
 NBasis=   142 NAE=    15 NBE=    15 NFC=     7 NFV=     0
 NROrb=    135 NOA=     8 NOB=     8 NVA=   127 NVB=   127

 **** Warning!!: The largest alpha MO coefficient is  0.18519002D+02

 Leave Link  801 at Wed May  4 19:05:27 2022, MaxMem=   754974720 cpu:               0.4 elap:               0.1
 (Enter /opt/cluster/programs/g16-c.01/g16/l906.exe)
 Frozen-core derivative calculation, NFC=   7 NFV=   0.
 FulOut=F Deriv=T AODrv=T NAtomX=     3
   MMem=          74  MDisk=           8 MDiskD=           8
  W3Min=      359970 MinDsk=      723803 NBas6D=         169
 NBas2D=       14809    NTT=       14365    LW2=     3500000
    MDV=   754677587 MDiskM=       22268 NBas2p=       14795
 Fully direct method using O(ONN) memory.
 IMap=   1   2   3   4   5   6   7   8   9  10  11  12  13  14  15
 JobTyp=1 Pass  1:  I=   8 to  15 NPSUse=  4 ParTrn=T ParDer=T DoDerP=T.
 Spin components of T(2) and E(2):
     alpha-alpha T2 =       0.2927102322D-01 E2=     -0.6967567685D-01
     alpha-beta  T2 =       0.1540760861D+00 E2=     -0.3963314256D+00
     beta-beta   T2 =       0.2927102322D-01 E2=     -0.6967567685D-01
 The integrals were generated   1 times.
 ANorm=    0.1101189417D+01
 E2 =    -0.5356827793D+00 EUMP2 =    -0.49046569120578D+03
 Leave Link  906 at Wed May  4 19:05:36 2022, MaxMem=   754974720 cpu:              34.7 elap:               8.7
 (Enter /opt/cluster/programs/g16-c.01/g16/l1002.exe)
 Minotr:  Closed shell wavefunction.
          Computing MP2/KS-MP2 derivatives.
          Using Z-Vector for PSCF gradient.
          Skipping F1 and S1 gradient terms here.
          IDoAtm=111
          Frozen-core window.
          Direct CPHF calculation.
          Differentiating once with respect to electric field.
                with respect to dipole field.
          Differentiating once with respect to nuclear coordinates.
          Using symmetry in CPHF.
          Requested convergence is 1.0D-10 RMS, and 1.0D-09 maximum.
          NewPWx=F KeepS1=T KeepF1=T KeepIn=T MapXYZ=F SortEE=F KeepMc=T.
 Keep R1 ints in memory in symmetry-blocked form, NReq=77616884.
 FoFCou: FMM=F IPFlag=           0 FMFlag=           0 FMFlg1=           0
         NFxFlg=           0 DoJE=F BraDBF=F KetDBF=F FulRan=T
         wScrn=  0.000000 ICntrl=       600 IOpCl=  0 I1Cent=           0 NGrid=           0
         NMat0=    1 NMatS0=  10153 NMatT0=    0 NMatD0=    1 NMtDS0=    0 NMtDT0=    0
 Petite list used in FoFCou.
          MDV=     754974720 using IRadAn=       5.
          Solving linear equations separately, MaxMat=       0.
          There are     1 degrees of freedom in the 1st order CPHF.  IDoFFX=0 NUNeed=     1.
 LinEq1:  Iter=  0 NonCon=     1 RMS=5.03D-03 Max=8.53D-02 NDo=     1
 AX will form     1 AO Fock derivatives at one time.
 LinEq1:  Iter=  1 NonCon=     1 RMS=1.73D-03 Max=1.81D-02 NDo=     1
 LinEq1:  Iter=  2 NonCon=     1 RMS=6.19D-04 Max=7.62D-03 NDo=     1
 LinEq1:  Iter=  3 NonCon=     1 RMS=3.36D-04 Max=4.71D-03 NDo=     1
 LinEq1:  Iter=  4 NonCon=     1 RMS=1.64D-04 Max=3.72D-03 NDo=     1
 LinEq1:  Iter=  5 NonCon=     1 RMS=6.11D-05 Max=7.85D-04 NDo=     1
 LinEq1:  Iter=  6 NonCon=     1 RMS=1.87D-05 Max=2.52D-04 NDo=     1
 LinEq1:  Iter=  7 NonCon=     1 RMS=4.46D-06 Max=4.89D-05 NDo=     1
 LinEq1:  Iter=  8 NonCon=     1 RMS=9.14D-07 Max=8.45D-06 NDo=     1
 LinEq1:  Iter=  9 NonCon=     1 RMS=2.54D-07 Max=3.36D-06 NDo=     1
 LinEq1:  Iter= 10 NonCon=     1 RMS=5.86D-08 Max=7.29D-07 NDo=     1
 LinEq1:  Iter= 11 NonCon=     1 RMS=1.25D-08 Max=1.14D-07 NDo=     1
 LinEq1:  Iter= 12 NonCon=     1 RMS=2.42D-09 Max=2.07D-08 NDo=     1
 LinEq1:  Iter= 13 NonCon=     1 RMS=3.77D-10 Max=3.65D-09 NDo=     1
 LinEq1:  Iter= 14 NonCon=     0 RMS=6.34D-11 Max=7.04D-10 NDo=     1
 Linear equations converged to 1.000D-10 1.000D-09 after    14 iterations.
 End of Minotr F.D. properties file   721 does not exist.
 End of Minotr F.D. properties file   722 does not exist.
 End of Minotr F.D. properties file   788 does not exist.
 Leave Link 1002 at Wed May  4 19:05:40 2022, MaxMem=   754974720 cpu:              13.8 elap:               3.8
 (Enter /opt/cluster/programs/g16-c.01/g16/l601.exe)
 Copying SCF densities to generalized density rwf, IOpCl= 0 IROHF=0.

 **********************************************************************

            Population analysis using the SCF Density.

 **********************************************************************

 Orbital symmetries:
       Occupied  (A') (A') (A') (A') (A') (A") (A') (A') (A') (A')
                 (A') (A") (A') (A") (A')
       Virtual   (A') (A') (A') (A") (A') (A") (A') (A") (A') (A')
                 (A') (A') (A") (A') (A') (A") (A') (A') (A") (A')
                 (A") (A') (A') (A") (A') (A') (A") (A') (A') (A")
                 (A') (A') (A") (A') (A") (A') (A") (A') (A') (A")
                 (A') (A') (A") (A') (A") (A') (A') (A") (A') (A")
                 (A') (A') (A") (A') (A') (A") (A') (A") (A') (A')
                 (A") (A') (A') (A") (A') (A") (A') (A") (A') (A')
                 (A') (A") (A') (A") (A') (A") (A') (A') (A') (A")
                 (A") (A') (A") (A') (A') (A") (A') (A") (A') (A')
                 (A') (A") (A') (A') (A") (A') (A") (A') (A") (A')
                 (A') (A") (A') (A") (A') (A') (A") (A') (A') (A")
                 (A') (A') (A") (A') (A') (A") (A") (A') (A') (A")
                 (A') (A") (A') (A') (A') (A') (A')
 The electronic state is 1-A'.
 Alpha  occ. eigenvalues --  -91.72840 -15.36086 -11.09971  -8.73073  -6.41274
 Alpha  occ. eigenvalues --   -6.41021  -6.41016  -0.99925  -0.76958  -0.41348
 Alpha  occ. eigenvalues --   -0.33324  -0.30011  -0.29951  -0.13833  -0.13476
 Alpha virt. eigenvalues --    0.17378   0.19209   0.22851   0.23630   0.23926
 Alpha virt. eigenvalues --    0.24034   0.24774   0.29642   0.30230   0.31151
 Alpha virt. eigenvalues --    0.34687   0.37967   0.40090   0.42063   0.44607
 Alpha virt. eigenvalues --    0.45104   0.45818   0.54207   0.54305   0.54615
 Alpha virt. eigenvalues --    0.55238   0.58222   0.62379   0.64031   0.64764
 Alpha virt. eigenvalues --    0.70656   0.71851   0.75302   0.77402   0.77436
 Alpha virt. eigenvalues --    0.78816   0.81183   0.82235   0.88290   0.90218
 Alpha virt. eigenvalues --    0.92790   0.95164   0.95648   1.00896   1.02126
 Alpha virt. eigenvalues --    1.02934   1.06554   1.06568   1.14065   1.14979
 Alpha virt. eigenvalues --    1.15049   1.26699   1.28052   1.28808   1.29118
 Alpha virt. eigenvalues --    1.31317   1.33625   1.36160   1.38027   1.43108
 Alpha virt. eigenvalues --    1.46684   1.47662   1.56311   1.57302   1.58973
 Alpha virt. eigenvalues --    1.72449   1.73366   1.74979   1.82199   1.86102
 Alpha virt. eigenvalues --    1.90563   1.92470   2.02934   2.04178   2.08048
 Alpha virt. eigenvalues --    2.14061   2.16079   2.18859   2.28651   2.29182
 Alpha virt. eigenvalues --    2.31376   2.31669   2.39189   2.46254   2.46713
 Alpha virt. eigenvalues --    2.53042   2.55225   2.59856   2.59926   2.60649
 Alpha virt. eigenvalues --    2.61406   2.66506   2.69500   2.75784   2.82814
 Alpha virt. eigenvalues --    2.98350   3.01061   3.25611   3.29690   3.31960
 Alpha virt. eigenvalues --    3.60948   3.67428   3.67642   3.71002   3.71335
 Alpha virt. eigenvalues --    3.80031   3.87863   3.93122   3.97013   3.99077
 Alpha virt. eigenvalues --    4.12814   4.14081   4.26797   4.68129   4.72716
 Alpha virt. eigenvalues --    4.83554   4.94368   5.20406   5.20452   5.46913
 Alpha virt. eigenvalues --    5.48102   5.66771   5.67550   5.82128   5.86267
 Alpha virt. eigenvalues --    6.22011   6.29811   6.35046   6.38360   6.78733
 Alpha virt. eigenvalues --   11.94287  16.33412
          Condensed to atoms (all electrons):
               1          2          3
     1  N    6.861095   0.681832  -0.116904
     2  C    0.681832   5.070738   0.346414
     3  S   -0.116904   0.346414  16.245482
 Mulliken charges:
               1
     1  N   -0.426023
     2  C   -0.098984
     3  S   -0.474993
 Sum of Mulliken charges =  -1.00000
 Mulliken charges with hydrogens summed into heavy atoms:
               1
     1  N   -0.426023
     2  C   -0.098984
     3  S   -0.474993
 Electronic spatial extent (au):  <R**2>=            221.0931
 Charge=             -1.0000 electrons
 Dipole moment (field-independent basis, Debye):
    X=             -0.6291    Y=             -1.1491    Z=              0.0000  Tot=              1.3100
 Quadrupole moment (field-independent basis, Debye-Ang):
   XX=            -31.0852   YY=            -39.0700   ZZ=            -29.3243
   XY=             -4.5115   XZ=             -0.0000   YZ=              0.0000
 Traceless Quadrupole moment (field-independent basis, Debye-Ang):
   XX=              2.0746   YY=             -5.9101   ZZ=              3.8355
   XY=             -4.5115   XZ=             -0.0000   YZ=              0.0000
 Octapole moment (field-independent basis, Debye-Ang**2):
  XXX=              2.1618  YYY=            -17.0356  ZZZ=             -0.0000  XYY=             -5.9096
  XXY=             -0.0548  XXZ=             -0.0000  XZZ=              0.8869  YZZ=              1.9145
  YYZ=              0.0000  XYZ=              0.0000
 Hexadecapole moment (field-independent basis, Debye-Ang**3):
 XXXX=            -77.1691 YYYY=           -281.3597 ZZZZ=            -46.1225 XXXY=            -41.8949
 XXXZ=              0.0000 YYYX=            -46.8653 YYYZ=              0.0000 ZZZX=              0.0000
 ZZZY=              0.0000 XXYY=            -62.2549 XXZZ=            -20.4599 YYZZ=            -53.5605
 XXYZ=              0.0000 YYXZ=              0.0000 ZZXY=            -13.4535
 N-N= 7.048684367811D+01 E-N=-1.311463255225D+03  KE= 4.897117170348D+02
 Symmetry A'   KE= 4.487043676275D+02
 Symmetry A"   KE= 4.100734940731D+01
 No NMR shielding tensors so no spin-rotation constants.
 Leave Link  601 at Wed May  4 19:05:40 2022, MaxMem=   754974720 cpu:               1.6 elap:               0.5
 (Enter /opt/cluster/programs/g16-c.01/g16/l701.exe)
 ... and contract with generalized density number  2.
 Compute integral first derivatives.
 Leave Link  701 at Wed May  4 19:05:42 2022, MaxMem=   754974720 cpu:               3.5 elap:               1.4
 (Enter /opt/cluster/programs/g16-c.01/g16/l702.exe)
 L702 exits ... SP integral derivatives will be done elsewhere.
 Leave Link  702 at Wed May  4 19:05:42 2022, MaxMem=   754974720 cpu:               0.1 elap:               0.0
 (Enter /opt/cluster/programs/g16-c.01/g16/l703.exe)
 Integral derivatives from FoFJK, PRISM(SPDF).
 Compute integral first derivatives, UseDBF=F ICtDFT=           0.
 Calling FoFJK, ICntrl=  10002127 FMM=F ISym2X=1 I1Cent= 0 IOpClX= 0 NMat=1 NMatS=1 NMatT=0.
 FoFJK:  IHMeth= 1 ICntrl=10002127 DoSepK=F KAlg= 0 I1Cent=           0 FoldK=F
 IRaf=         0 NMat=       1 IRICut=       1 DoRegI=T DoRafI=F ISym2E= 1 IDoP0=0 IntGTp=1.
 FoFCou: FMM=F IPFlag=           0 FMFlag=      100000 FMFlg1=         800
         NFxFlg=           0 DoJE=F BraDBF=F KetDBF=F FulRan=T
         wScrn=  0.000000 ICntrl=  10002127 IOpCl=  0 I1Cent=           0 NGrid=           0
         NMat0=    1 NMatS0=      1 NMatT0=    0 NMatD0=    1 NMtDS0=    0 NMtDT0=    0
 Petite list used in FoFCou.
 Leave Link  703 at Wed May  4 19:05:47 2022, MaxMem=   754974720 cpu:              19.3 elap:               5.0
 (Enter /opt/cluster/programs/g16-c.01/g16/l716.exe)
 Dipole        =-1.99204122D-01-4.47977582D-01-9.12206125D-33
 ***** Axes restored to original set *****
 -------------------------------------------------------------------
 Center     Atomic                   Forces (Hartrees/Bohr)
 Number     Number              X              Y              Z
 -------------------------------------------------------------------
      1        7          -0.024332695    0.000000000   -0.007343536
      2        6           0.036579067   -0.000000000   -0.007726068
      3       16          -0.012246372    0.000000000    0.015069604
 -------------------------------------------------------------------
 Cartesian Forces:  Max     0.036579067 RMS     0.016400523
 Leave Link  716 at Wed May  4 19:05:47 2022, MaxMem=   754974720 cpu:               0.2 elap:               0.1
 (Enter /opt/cluster/programs/g16-c.01/g16/l103.exe)

 GradGradGradGradGradGradGradGradGradGradGradGradGradGradGradGradGradGrad
 Berny optimization.
 FormGI is forming the generalized inverse of G from B-inverse, IUseBI=4.
 Internal  Forces:  Max     0.054827103 RMS     0.032310400
 Search for a local minimum.
 Step number   1 out of a maximum of   20
 All quantities printed in internal units (Hartrees-Bohrs-Radians)
 RMS Force = .79333D-02 SwitMx=.10000D-02 MixMth= 1
 Mixed Optimization -- RFO/linear search
 Second derivative matrix not updated -- first step.
 The second derivative matrix:
                          R1        R2        A1
           R1           1.08759
           R2           0.00000   0.41030
           A1           0.00000   0.00000   0.25000
 ITU=  0
     Eigenvalues ---    0.41030   1.087591000.00000
 RFO step:  Lambda=-2.24830555D-04 EMin= 4.10299174D-01
 Linear search not attempted -- first point.
 Iteration  1 RMS(Cart)=  0.01152333 RMS(Int)=  0.00000052
 Iteration  2 RMS(Cart)=  0.00000057 RMS(Int)=  0.00000000
 Iteration  1 RMS(Cart)=  0.00000000 RMS(Int)=  0.00000000
 ITry= 1 IFail=0 DXMaxC= 1.50D-02 DCOld= 1.00D+10 DXMaxT= 3.00D-01 DXLimC= 3.00D+00 Rises=F
 ClnCor:  largest displacement from symmetrization is 1.41D-15 for atom     1.
 Variable       Old X    -DE/DX   Delta X   Delta X   Delta X     New X
                                 (Linear)    (Quad)   (Total)
    R1        2.25323   0.00734   0.00000   0.00675   0.00675   2.25998
    R2        3.13877   0.00848   0.00000   0.02066   0.02066   3.15944
    A1        2.70526   0.05483   0.00000   0.00000  -0.00000   2.70526
         Item               Value     Threshold  Converged?
 Maximum Force            0.008482     0.000450     NO 
 RMS     Force            0.007933     0.000300     NO 
 Maximum Displacement     0.014957     0.001800     NO 
 RMS     Displacement     0.011523     0.001200     NO 
 Predicted change in Energy=-1.124684D-04
 Lowest energy point so far.  Saving SCF results.
 GradGradGradGradGradGradGradGradGradGradGradGradGradGradGradGradGradGrad

 Leave Link  103 at Wed May  4 19:05:47 2022, MaxMem=   754974720 cpu:               0.0 elap:               0.0
 (Enter /opt/cluster/programs/g16-c.01/g16/l202.exe)
                          Input orientation:                          
 ---------------------------------------------------------------------
 Center     Atomic      Atomic             Coordinates (Angstroms)
 Number     Number       Type             X           Y           Z
 ---------------------------------------------------------------------
      1          7           0       -0.001215   -0.000000   -1.826686
      2          6           0       -0.001514    0.000000   -0.630757
      3         16           0        0.704684   -0.000000    0.884677
 ---------------------------------------------------------------------
                    Distance matrix (angstroms):
                    1          2          3
     1  N    0.000000
     2  C    1.195929   0.000000
     3  S    2.801747   1.671902   0.000000
 Stoichiometry    CNS(1-)
 Framework group  CS[SG(CNS)]
 Deg. of freedom     3
 Full point group                 CS      NOp   2
 RotChk:  IX=0 Diff= 1.62D-03
 Largest Abelian subgroup         CS      NOp   2
 Largest concise Abelian subgroup C1      NOp   1
                         Standard orientation:                         
 ---------------------------------------------------------------------
 Center     Atomic      Atomic             Coordinates (Angstroms)
 Number     Number       Type             X           Y           Z
 ---------------------------------------------------------------------
      1          7           0        0.693804    1.646076    0.000000
      2          6           0       -0.000000    0.671970    0.000000
      3         16           0       -0.303539   -0.972147    0.000000
 ---------------------------------------------------------------------
 Rotational constants (GHZ):         629.7969058           6.1287410           6.0696752
 Leave Link  202 at Wed May  4 19:05:47 2022, MaxMem=   754974720 cpu:               0.1 elap:               0.0
 (Enter /opt/cluster/programs/g16-c.01/g16/l301.exe)
 Standard basis: Aug-CC-pVTZ (5D, 7F)
 Ernie: Thresh=  0.10000D-02 Tol=  0.10000D-05 Strict=F.
 Ernie:  19 primitive shells out of 124 were deleted.
 There are   114 symmetry adapted cartesian basis functions of A'  symmetry.
 There are    55 symmetry adapted cartesian basis functions of A"  symmetry.
 There are    93 symmetry adapted basis functions of A'  symmetry.
 There are    49 symmetry adapted basis functions of A"  symmetry.
   142 basis functions,   258 primitive gaussians,   169 cartesian basis functions
    15 alpha electrons       15 beta electrons
       nuclear repulsion energy        70.1233031024 Hartrees.
 IExCor=    0 DFT=F Ex=HF Corr=None ExCW=0 ScaHFX=  1.000000
 ScaDFX=  1.000000  1.000000  1.000000  1.000000 ScalE2=  1.000000  1.000000
 IRadAn=      5 IRanWt=     -1 IRanGd=            0 ICorTp=0 IEmpDi=  4
 NAtoms=    3 NActive=    3 NUniq=    3 SFac= 1.00D+00 NAtFMM=   60 NAOKFM=F Big=F
 Integral buffers will be    131072 words long.
 Raffenetti 1 integral format.
 Two-electron integral symmetry is turned on.
 Leave Link  301 at Wed May  4 19:05:47 2022, MaxMem=   754974720 cpu:               0.2 elap:               0.1
 (Enter /opt/cluster/programs/g16-c.01/g16/l302.exe)
 NPDir=0 NMtPBC=     1 NCelOv=     1 NCel=       1 NClECP=     1 NCelD=      1
         NCelK=      1 NCelE2=     1 NClLst=     1 CellRange=     0.0.
 One-electron integrals computed using PRISM.
 One-electron integral symmetry used in STVInt
 NBasis=   142 RedAO= T EigKep=  1.05D-04  NBF=    93    49
 NBsUse=   142 1.00D-06 EigRej= -1.00D+00 NBFU=    93    49
 Leave Link  302 at Wed May  4 19:05:50 2022, MaxMem=   754974720 cpu:               7.2 elap:               2.4
 (Enter /opt/cluster/programs/g16-c.01/g16/l303.exe)
 DipDrv:  MaxL=1.
 Leave Link  303 at Wed May  4 19:05:50 2022, MaxMem=   754974720 cpu:               0.1 elap:               0.0
 (Enter /opt/cluster/programs/g16-c.01/g16/l401.exe)
 Initial guess from the checkpoint file:  "gaussian_6_scn.chk"
 B after Tr=    -0.000000    0.000000   -0.000000
         Rot=    1.000000    0.000000   -0.000000   -0.000586 Ang=  -0.07 deg.
 Guess basis will be translated and rotated to current coordinates.
 JPrj=2 DoOrth=T DoCkMO=T.
 Initial guess orbital symmetries:
       Occupied  (A') (A') (A') (A') (A') (A") (A') (A') (A') (A')
                 (A') (A") (A') (A") (A')
       Virtual   (A') (A') (A') (A") (A') (A") (A') (A") (A') (A')
                 (A') (A') (A") (A') (A') (A") (A') (A') (A") (A')
                 (A") (A') (A') (A") (A') (A') (A") (A') (A') (A")
                 (A') (A') (A") (A') (A") (A') (A") (A') (A') (A")
                 (A') (A') (A") (A') (A") (A') (A') (A") (A') (A")
                 (A') (A') (A") (A') (A') (A") (A') (A") (A') (A')
                 (A") (A') (A') (A") (A') (A") (A') (A") (A') (A')
                 (A') (A") (A') (A") (A') (A") (A') (A') (A') (A")
                 (A") (A') (A") (A') (A') (A") (A') (A") (A') (A')
                 (A') (A") (A') (A') (A") (A') (A") (A') (A") (A')
                 (A') (A") (A') (A") (A') (A') (A") (A') (A') (A")
                 (A') (A') (A") (A') (A') (A") (A") (A') (A') (A")
                 (A') (A") (A') (A') (A') (A') (A')
 The electronic state of the initial guess is 1-A'.
 Leave Link  401 at Wed May  4 19:05:50 2022, MaxMem=   754974720 cpu:               0.5 elap:               0.1
 (Enter /opt/cluster/programs/g16-c.01/g16/l502.exe)
 Keep R1 ints in memory in symmetry-blocked form, NReq=77616006.
 FoFCou: FMM=F IPFlag=           0 FMFlag=           0 FMFlg1=           0
         NFxFlg=           0 DoJE=F BraDBF=F KetDBF=F FulRan=T
         wScrn=  0.000000 ICntrl=       600 IOpCl=  0 I1Cent=           0 NGrid=           0
         NMat0=    1 NMatS0=  10153 NMatT0=    0 NMatD0=    1 NMtDS0=    0 NMtDT0=    0
 Petite list used in FoFCou.
 Closed shell SCF:
 Using DIIS extrapolation, IDIIS=  1040.
 NGot=   754974720 LenX=   728846748 LenY=   728817746
 Requested convergence on RMS density matrix=1.00D-08 within 200 cycles.
 Requested convergence on MAX density matrix=1.00D-06.
 Requested convergence on             energy=1.00D-06.
 No special actions if energy rises.

 Cycle   1  Pass 1  IDiag  1:
 E= -489.929546937436    
 DIIS: error= 5.15D-04 at cycle   1 NSaved=   1.
 NSaved= 1 IEnMin= 1 EnMin= -489.929546937436     IErMin= 1 ErrMin= 5.15D-04
 ErrMax= 5.15D-04  0.00D+00 EMaxC= 1.00D-01 BMatC= 3.65D-05 BMatP= 3.65D-05
 IDIUse=3 WtCom= 9.95D-01 WtEn= 5.15D-03
 Coeff-Com:  0.100D+01
 Coeff-En:   0.100D+01
 Coeff:      0.100D+01
 Gap=     0.310 Goal=   None    Shift=    0.000
 RMSDP=6.25D-05 MaxDP=1.59D-03              OVMax= 2.05D-03

 Cycle   2  Pass 1  IDiag  1:
 E= -489.929587099562     Delta-E=       -0.000040162126 Rises=F Damp=F
 DIIS: error= 3.16D-04 at cycle   2 NSaved=   2.
 NSaved= 2 IEnMin= 2 EnMin= -489.929587099562     IErMin= 2 ErrMin= 3.16D-04
 ErrMax= 3.16D-04  0.00D+00 EMaxC= 1.00D-01 BMatC= 4.83D-06 BMatP= 3.65D-05
 IDIUse=3 WtCom= 9.97D-01 WtEn= 3.16D-03
 Coeff-Com:  0.132D+00 0.868D+00
 Coeff-En:   0.000D+00 0.100D+01
 Coeff:      0.132D+00 0.868D+00
 Gap=     0.309 Goal=   None    Shift=    0.000
 RMSDP=1.83D-05 MaxDP=4.85D-04 DE=-4.02D-05 OVMax= 1.09D-03

 Cycle   3  Pass 1  IDiag  1:
 E= -489.929592587085     Delta-E=       -0.000005487523 Rises=F Damp=F
 DIIS: error= 1.71D-04 at cycle   3 NSaved=   3.
 NSaved= 3 IEnMin= 3 EnMin= -489.929592587085     IErMin= 3 ErrMin= 1.71D-04
 ErrMax= 1.71D-04  0.00D+00 EMaxC= 1.00D-01 BMatC= 1.21D-06 BMatP= 4.83D-06
 IDIUse=3 WtCom= 9.98D-01 WtEn= 1.71D-03
 Coeff-Com: -0.726D-01 0.251D+00 0.822D+00
 Coeff-En:   0.000D+00 0.000D+00 0.100D+01
 Coeff:     -0.724D-01 0.250D+00 0.822D+00
 Gap=     0.309 Goal=   None    Shift=    0.000
 RMSDP=6.19D-06 MaxDP=1.51D-04 DE=-5.49D-06 OVMax= 4.94D-04

 Cycle   4  Pass 1  IDiag  1:
 E= -489.929594191739     Delta-E=       -0.000001604654 Rises=F Damp=F
 DIIS: error= 4.87D-05 at cycle   4 NSaved=   4.
 NSaved= 4 IEnMin= 4 EnMin= -489.929594191739     IErMin= 4 ErrMin= 4.87D-05
 ErrMax= 4.87D-05  0.00D+00 EMaxC= 1.00D-01 BMatC= 1.60D-07 BMatP= 1.21D-06
 IDIUse=1 WtCom= 1.00D+00 WtEn= 0.00D+00
 Coeff-Com: -0.324D-01-0.210D-01 0.248D+00 0.806D+00
 Coeff:     -0.324D-01-0.210D-01 0.248D+00 0.806D+00
 Gap=     0.309 Goal=   None    Shift=    0.000
 RMSDP=3.28D-06 MaxDP=6.81D-05 DE=-1.60D-06 OVMax= 2.16D-04

 Cycle   5  Pass 1  IDiag  1:
 E= -489.929594451608     Delta-E=       -0.000000259870 Rises=F Damp=F
 DIIS: error= 1.93D-05 at cycle   5 NSaved=   5.
 NSaved= 5 IEnMin= 5 EnMin= -489.929594451608     IErMin= 5 ErrMin= 1.93D-05
 ErrMax= 1.93D-05  0.00D+00 EMaxC= 1.00D-01 BMatC= 2.34D-08 BMatP= 1.60D-07
 IDIUse=1 WtCom= 1.00D+00 WtEn= 0.00D+00
 Coeff-Com:  0.116D-01-0.594D-01-0.129D+00 0.118D+00 0.106D+01
 Coeff:      0.116D-01-0.594D-01-0.129D+00 0.118D+00 0.106D+01
 Gap=     0.309 Goal=   None    Shift=    0.000
 RMSDP=2.07D-06 MaxDP=5.94D-05 DE=-2.60D-07 OVMax= 1.18D-04

 Cycle   6  Pass 1  IDiag  1:
 E= -489.929594512343     Delta-E=       -0.000000060735 Rises=F Damp=F
 DIIS: error= 4.05D-06 at cycle   6 NSaved=   6.
 NSaved= 6 IEnMin= 6 EnMin= -489.929594512343     IErMin= 6 ErrMin= 4.05D-06
 ErrMax= 4.05D-06  0.00D+00 EMaxC= 1.00D-01 BMatC= 1.63D-09 BMatP= 2.34D-08
 IDIUse=1 WtCom= 1.00D+00 WtEn= 0.00D+00
 Coeff-Com:  0.314D-02 0.335D-02-0.267D-01-0.676D-01-0.284D-02 0.109D+01
 Coeff:      0.314D-02 0.335D-02-0.267D-01-0.676D-01-0.284D-02 0.109D+01
 Gap=     0.309 Goal=   None    Shift=    0.000
 RMSDP=6.08D-07 MaxDP=1.62D-05 DE=-6.07D-08 OVMax= 4.28D-05

 Cycle   7  Pass 1  IDiag  1:
 E= -489.929594517986     Delta-E=       -0.000000005643 Rises=F Damp=F
 DIIS: error= 2.22D-06 at cycle   7 NSaved=   7.
 NSaved= 7 IEnMin= 7 EnMin= -489.929594517986     IErMin= 7 ErrMin= 2.22D-06
 ErrMax= 2.22D-06  0.00D+00 EMaxC= 1.00D-01 BMatC= 2.44D-10 BMatP= 1.63D-09
 IDIUse=1 WtCom= 1.00D+00 WtEn= 0.00D+00
 Coeff-Com: -0.137D-02 0.859D-02 0.125D-01-0.112D-01-0.158D+00 0.629D-01
 Coeff-Com:  0.109D+01
 Coeff:     -0.137D-02 0.859D-02 0.125D-01-0.112D-01-0.158D+00 0.629D-01
 Coeff:      0.109D+01
 Gap=     0.309 Goal=   None    Shift=    0.000
 RMSDP=2.63D-07 MaxDP=8.62D-06 DE=-5.64D-09 OVMax= 1.56D-05

 Cycle   8  Pass 1  IDiag  1:
 E= -489.929594518672     Delta-E=       -0.000000000686 Rises=F Damp=F
 DIIS: error= 3.98D-07 at cycle   8 NSaved=   8.
 NSaved= 8 IEnMin= 8 EnMin= -489.929594518672     IErMin= 8 ErrMin= 3.98D-07
 ErrMax= 3.98D-07  0.00D+00 EMaxC= 1.00D-01 BMatC= 1.20D-11 BMatP= 2.44D-10
 IDIUse=1 WtCom= 1.00D+00 WtEn= 0.00D+00
 Coeff-Com:  0.695D-04-0.134D-02-0.982D-03 0.634D-02 0.203D-01-0.470D-01
 Coeff-Com: -0.233D+00 0.126D+01
 Coeff:      0.695D-04-0.134D-02-0.982D-03 0.634D-02 0.203D-01-0.470D-01
 Coeff:     -0.233D+00 0.126D+01
 Gap=     0.309 Goal=   None    Shift=    0.000
 RMSDP=8.30D-08 MaxDP=3.33D-06 DE=-6.86D-10 OVMax= 4.51D-06

 Cycle   9  Pass 1  IDiag  1:
 E= -489.929594518721     Delta-E=       -0.000000000049 Rises=F Damp=F
 DIIS: error= 2.03D-07 at cycle   9 NSaved=   9.
 NSaved= 9 IEnMin= 9 EnMin= -489.929594518721     IErMin= 9 ErrMin= 2.03D-07
 ErrMax= 2.03D-07  0.00D+00 EMaxC= 1.00D-01 BMatC= 1.85D-12 BMatP= 1.20D-11
 IDIUse=1 WtCom= 1.00D+00 WtEn= 0.00D+00
 Coeff-Com:  0.976D-04-0.354D-03-0.891D-03-0.597D-04 0.811D-02 0.661D-02
 Coeff-Com: -0.302D-01-0.365D+00 0.138D+01
 Coeff:      0.976D-04-0.354D-03-0.891D-03-0.597D-04 0.811D-02 0.661D-02
 Coeff:     -0.302D-01-0.365D+00 0.138D+01
 Gap=     0.309 Goal=   None    Shift=    0.000
 RMSDP=3.43D-08 MaxDP=1.32D-06 DE=-4.85D-11 OVMax= 2.25D-06

 Cycle  10  Pass 1  IDiag  1:
 E= -489.929594518730     Delta-E=       -0.000000000009 Rises=F Damp=F
 DIIS: error= 1.21D-07 at cycle  10 NSaved=  10.
 NSaved=10 IEnMin=10 EnMin= -489.929594518730     IErMin=10 ErrMin= 1.21D-07
 ErrMax= 1.21D-07  0.00D+00 EMaxC= 1.00D-01 BMatC= 4.09D-13 BMatP= 1.85D-12
 IDIUse=1 WtCom= 1.00D+00 WtEn= 0.00D+00
 Coeff-Com: -0.295D-04 0.269D-03 0.263D-03-0.830D-03-0.533D-02 0.592D-02
 Coeff-Com:  0.445D-01-0.972D-01-0.415D+00 0.147D+01
 Coeff:     -0.295D-04 0.269D-03 0.263D-03-0.830D-03-0.533D-02 0.592D-02
 Coeff:      0.445D-01-0.972D-01-0.415D+00 0.147D+01
 Gap=     0.309 Goal=   None    Shift=    0.000
 RMSDP=1.57D-08 MaxDP=4.76D-07 DE=-9.32D-12 OVMax= 1.26D-06

 Cycle  11  Pass 1  IDiag  1:
 E= -489.929594518733     Delta-E=       -0.000000000003 Rises=F Damp=F
 DIIS: error= 5.43D-08 at cycle  11 NSaved=  11.
 NSaved=11 IEnMin=11 EnMin= -489.929594518733     IErMin=11 ErrMin= 5.43D-08
 ErrMax= 5.43D-08  0.00D+00 EMaxC= 1.00D-01 BMatC= 8.43D-14 BMatP= 4.09D-13
 IDIUse=1 WtCom= 1.00D+00 WtEn= 0.00D+00
 Coeff-Com: -0.801D-05-0.271D-04 0.970D-04 0.252D-03 0.367D-03-0.314D-02
 Coeff-Com: -0.974D-02 0.101D+00-0.107D+00-0.569D+00 0.159D+01
 Coeff:     -0.801D-05-0.271D-04 0.970D-04 0.252D-03 0.367D-03-0.314D-02
 Coeff:     -0.974D-02 0.101D+00-0.107D+00-0.569D+00 0.159D+01
 Gap=     0.309 Goal=   None    Shift=    0.000
 RMSDP=6.94D-09 MaxDP=1.59D-07 DE=-3.18D-12 OVMax= 6.15D-07

 SCF Done:  E(RHF) =  -489.929594519     A.U. after   11 cycles
            NFock= 11  Conv=0.69D-08     -V/T= 2.0005
 KE= 4.896701187810D+02 PE=-1.310684265909D+03 EE= 2.609612495065D+02
 Leave Link  502 at Wed May  4 19:05:53 2022, MaxMem=   754974720 cpu:              12.2 elap:               3.2
 (Enter /opt/cluster/programs/g16-c.01/g16/l801.exe)
 ExpMin= 3.51D-02 ExpMax= 3.74D+05 ExpMxC= 1.18D+03 IAcc=3 IRadAn=         5 AccDes= 0.00D+00
 HarFok:  IExCor=  205 AccDes= 0.00D+00 IRadAn=         5 IDoV=-2 UseB2=F ITyADJ=14
 ICtDFT= 12500011 ScaDFX=  1.000000  1.000000  1.000000  1.000000
 Largest valence mixing into a core orbital is  5.37D-04
 Largest core mixing into a valence orbital is  1.40D-04
 Range of M.O.s used for correlation:     8   142
 NBasis=   142 NAE=    15 NBE=    15 NFC=     7 NFV=     0
 NROrb=    135 NOA=     8 NOB=     8 NVA=   127 NVB=   127

 **** Warning!!: The largest alpha MO coefficient is  0.18455602D+02

 Leave Link  801 at Wed May  4 19:05:53 2022, MaxMem=   754974720 cpu:               0.4 elap:               0.1
 (Enter /opt/cluster/programs/g16-c.01/g16/l906.exe)
 Frozen-core derivative calculation, NFC=   7 NFV=   0.
 FulOut=F Deriv=T AODrv=T NAtomX=     3
   MMem=          74  MDisk=           8 MDiskD=           8
  W3Min=      359970 MinDsk=      723803 NBas6D=         169
 NBas2D=       14809    NTT=       14365    LW2=     3500000
    MDV=   754677643 MDiskM=       22268 NBas2p=       14795
 Fully direct method using O(ONN) memory.
 IMap=   1   2   3   4   5   6   7   8   9  10  11  12  13  14  15
 JobTyp=1 Pass  1:  I=   8 to  15 NPSUse=  4 ParTrn=T ParDer=T DoDerP=T.
 Spin components of T(2) and E(2):
     alpha-alpha T2 =       0.2937287184D-01 E2=     -0.6970562796D-01
     alpha-beta  T2 =       0.1547462092D+00 E2=     -0.3968138095D+00
     beta-beta   T2 =       0.2937287184D-01 E2=     -0.6970562796D-01
 The integrals were generated   1 times.
 ANorm=    0.1101586108D+01
 E2 =    -0.5362250655D+00 EUMP2 =    -0.49046581958420D+03
 Leave Link  906 at Wed May  4 19:06:01 2022, MaxMem=   754974720 cpu:              33.1 elap:               8.3
 (Enter /opt/cluster/programs/g16-c.01/g16/l1002.exe)
 Minotr:  Closed shell wavefunction.
          Computing MP2/KS-MP2 derivatives.
          Using Z-Vector for PSCF gradient.
          Skipping F1 and S1 gradient terms here.
          IDoAtm=111
          Frozen-core window.
          Direct CPHF calculation.
          Differentiating once with respect to electric field.
                with respect to dipole field.
          Differentiating once with respect to nuclear coordinates.
          Using symmetry in CPHF.
          Requested convergence is 1.0D-10 RMS, and 1.0D-09 maximum.
          NewPWx=F KeepS1=T KeepF1=T KeepIn=T MapXYZ=F SortEE=F KeepMc=T.
 Keep R1 ints in memory in symmetry-blocked form, NReq=77616884.
 FoFCou: FMM=F IPFlag=           0 FMFlag=           0 FMFlg1=           0
         NFxFlg=           0 DoJE=F BraDBF=F KetDBF=F FulRan=T
         wScrn=  0.000000 ICntrl=       600 IOpCl=  0 I1Cent=           0 NGrid=           0
         NMat0=    1 NMatS0=  10153 NMatT0=    0 NMatD0=    1 NMtDS0=    0 NMtDT0=    0
 Petite list used in FoFCou.
          MDV=     754974720 using IRadAn=       5.
          Solving linear equations separately, MaxMat=       0.
          There are     1 degrees of freedom in the 1st order CPHF.  IDoFFX=0 NUNeed=     1.
 LinEq1:  Iter=  0 NonCon=     1 RMS=5.06D-03 Max=8.56D-02 NDo=     1
 AX will form     1 AO Fock derivatives at one time.
 LinEq1:  Iter=  1 NonCon=     1 RMS=1.75D-03 Max=1.80D-02 NDo=     1
 LinEq1:  Iter=  2 NonCon=     1 RMS=6.30D-04 Max=7.91D-03 NDo=     1
 LinEq1:  Iter=  3 NonCon=     1 RMS=3.47D-04 Max=4.91D-03 NDo=     1
 LinEq1:  Iter=  4 NonCon=     1 RMS=1.68D-04 Max=3.79D-03 NDo=     1
 LinEq1:  Iter=  5 NonCon=     1 RMS=6.26D-05 Max=8.01D-04 NDo=     1
 LinEq1:  Iter=  6 NonCon=     1 RMS=1.92D-05 Max=2.57D-04 NDo=     1
 LinEq1:  Iter=  7 NonCon=     1 RMS=4.59D-06 Max=5.14D-05 NDo=     1
 LinEq1:  Iter=  8 NonCon=     1 RMS=9.41D-07 Max=8.76D-06 NDo=     1
 LinEq1:  Iter=  9 NonCon=     1 RMS=2.62D-07 Max=3.48D-06 NDo=     1
 LinEq1:  Iter= 10 NonCon=     1 RMS=6.05D-08 Max=7.49D-07 NDo=     1
 LinEq1:  Iter= 11 NonCon=     1 RMS=1.29D-08 Max=1.15D-07 NDo=     1
 LinEq1:  Iter= 12 NonCon=     1 RMS=2.50D-09 Max=2.20D-08 NDo=     1
 LinEq1:  Iter= 13 NonCon=     1 RMS=3.89D-10 Max=3.74D-09 NDo=     1
 LinEq1:  Iter= 14 NonCon=     0 RMS=6.53D-11 Max=7.25D-10 NDo=     1
 Linear equations converged to 1.000D-10 1.000D-09 after    14 iterations.
 End of Minotr F.D. properties file   721 does not exist.
 End of Minotr F.D. properties file   722 does not exist.
 End of Minotr F.D. properties file   788 does not exist.
 Leave Link 1002 at Wed May  4 19:06:05 2022, MaxMem=   754974720 cpu:              13.8 elap:               3.7
 (Enter /opt/cluster/programs/g16-c.01/g16/l701.exe)
 ... and contract with generalized density number  2.
 Compute integral first derivatives.
 Leave Link  701 at Wed May  4 19:06:06 2022, MaxMem=   754974720 cpu:               2.1 elap:               1.0
 (Enter /opt/cluster/programs/g16-c.01/g16/l702.exe)
 L702 exits ... SP integral derivatives will be done elsewhere.
 Leave Link  702 at Wed May  4 19:06:06 2022, MaxMem=   754974720 cpu:               0.1 elap:               0.0
 (Enter /opt/cluster/programs/g16-c.01/g16/l703.exe)
 Integral derivatives from FoFJK, PRISM(SPDF).
 Compute integral first derivatives, UseDBF=F ICtDFT=           0.
 Calling FoFJK, ICntrl=  10002127 FMM=F ISym2X=1 I1Cent= 0 IOpClX= 0 NMat=1 NMatS=1 NMatT=0.
 FoFJK:  IHMeth= 1 ICntrl=10002127 DoSepK=F KAlg= 0 I1Cent=           0 FoldK=F
 IRaf=         0 NMat=       1 IRICut=       1 DoRegI=T DoRafI=F ISym2E= 1 IDoP0=0 IntGTp=1.
 FoFCou: FMM=F IPFlag=           0 FMFlag=      100000 FMFlg1=         800
         NFxFlg=           0 DoJE=F BraDBF=F KetDBF=F FulRan=T
         wScrn=  0.000000 ICntrl=  10002127 IOpCl=  0 I1Cent=           0 NGrid=           0
         NMat0=    1 NMatS0=      1 NMatT0=    0 NMatD0=    1 NMtDS0=    0 NMtDT0=    0
 Petite list used in FoFCou.
 Leave Link  703 at Wed May  4 19:06:11 2022, MaxMem=   754974720 cpu:              19.4 elap:               5.1
 (Enter /opt/cluster/programs/g16-c.01/g16/l716.exe)
 Dipole        =-1.96068754D-01-4.41393283D-01 0.00000000D+00
 ***** Axes restored to original set *****
 -------------------------------------------------------------------
 Center     Atomic                   Forces (Hartrees/Bohr)
 Number     Number              X              Y              Z
 -------------------------------------------------------------------
      1        7          -0.023784591   -0.000000000   -0.000232449
      2        6           0.038551371   -0.000000000   -0.008358232
      3       16          -0.014766780   -0.000000000    0.008590681
 -------------------------------------------------------------------
 Cartesian Forces:  Max     0.038551371 RMS     0.016376428
 Leave Link  716 at Wed May  4 19:06:12 2022, MaxMem=   754974720 cpu:               0.2 elap:               0.1
 (Enter /opt/cluster/programs/g16-c.01/g16/l103.exe)

 GradGradGradGradGradGradGradGradGradGradGradGradGradGradGradGradGradGrad
 Berny optimization.
 Using GEDIIS/GDIIS optimizer.
 FormGI is forming the generalized inverse of G from B-inverse, IUseBI=4.
 Internal  Forces:  Max     0.053752832 RMS     0.031047377
 Search for a local minimum.
 Step number   2 out of a maximum of   20
 All quantities printed in internal units (Hartrees-Bohrs-Radians)
 RMS Force = .11072D-02 SwitMx=.10000D-02 MixMth= 1
 Mixed Optimization -- RFO/linear search
 Update second derivatives using D2CorX and points    1    2
 DE= -1.28D-04 DEPred=-1.12D-04 R= 1.14D+00
 TightC=F SS=  1.41D+00  RLast= 2.17D-02 DXNew= 5.0454D-01 6.5210D-02
 Trust test= 1.14D+00 RLast= 2.17D-02 DXMaxT set to 3.00D-01
 The second derivative matrix:
                          R1        R2        A1
           R1           1.11251
           R2          -0.01903   0.34176
           A1           0.03997   0.03893   0.25603
 ITU=  1  0
 Use linear search instead of GDIIS.
     Eigenvalues ---    0.34129   1.112981000.00000
 RFO step:  Lambda=-1.28816979D-06 EMin= 3.41286384D-01
 Quartic linear search produced a step of  0.18072.
 Iteration  1 RMS(Cart)=  0.00226430 RMS(Int)=  0.00000007
 Iteration  2 RMS(Cart)=  0.00000008 RMS(Int)=  0.00000000
 Iteration  1 RMS(Cart)=  0.00000000 RMS(Int)=  0.00000000
 ITry= 1 IFail=0 DXMaxC= 3.01D-03 DCOld= 1.00D+10 DXMaxT= 3.00D-01 DXLimC= 3.00D+00 Rises=F
 ClnCor:  largest displacement from symmetrization is 2.28D-15 for atom     1.
 Variable       Old X    -DE/DX   Delta X   Delta X   Delta X     New X
                                 (Linear)    (Quad)   (Total)
    R1        2.25998   0.00023   0.00122  -0.00092   0.00030   2.26028
    R2        3.15944   0.00155   0.00373   0.00095   0.00468   3.16412
    A1        2.70526   0.05375  -0.00000   0.00000   0.00000   2.70526
         Item               Value     Threshold  Converged?
 Maximum Force            0.001549     0.000450     NO 
 RMS     Force            0.001107     0.000300     NO 
 Maximum Displacement     0.003012     0.001800     NO 
 RMS     Displacement     0.002264     0.001200     NO 
 Predicted change in Energy=-3.552879D-06
 Lowest energy point so far.  Saving SCF results.
 GradGradGradGradGradGradGradGradGradGradGradGradGradGradGradGradGradGrad

 Leave Link  103 at Wed May  4 19:06:12 2022, MaxMem=   754974720 cpu:               0.3 elap:               0.1
 (Enter /opt/cluster/programs/g16-c.01/g16/l202.exe)
                          Input orientation:                          
 ---------------------------------------------------------------------
 Center     Atomic      Atomic             Coordinates (Angstroms)
 Number     Number       Type             X           Y           Z
 ---------------------------------------------------------------------
      1          7           0       -0.001441   -0.000000   -1.827562
      2          6           0       -0.001852   -0.000000   -0.631476
      3         16           0        0.705248   -0.000000    0.886271
 ---------------------------------------------------------------------
                    Distance matrix (angstroms):
                    1          2          3
     1  N    0.000000
     2  C    1.196086   0.000000
     3  S    2.804335   1.674379   0.000000
 Stoichiometry    CNS(1-)
 Framework group  CS[SG(CNS)]
 Deg. of freedom     3
 Full point group                 CS      NOp   2
 RotChk:  IX=0 Diff= 6.09D-04
 Largest Abelian subgroup         CS      NOp   2
 Largest concise Abelian subgroup C1      NOp   1
                         Standard orientation:                         
 ---------------------------------------------------------------------
 Center     Atomic      Atomic             Coordinates (Angstroms)
 Number     Number       Type             X           Y           Z
 ---------------------------------------------------------------------
      1          7           0        0.693568    1.647750    0.000000
      2          6           0        0.000000    0.673283    0.000000
      3         16           0       -0.303436   -0.973372   -0.000000
 ---------------------------------------------------------------------
 Rotational constants (GHZ):         629.0415112           6.1163496           6.0574513
 Leave Link  202 at Wed May  4 19:06:12 2022, MaxMem=   754974720 cpu:               0.1 elap:               0.0
 (Enter /opt/cluster/programs/g16-c.01/g16/l301.exe)
 Standard basis: Aug-CC-pVTZ (5D, 7F)
 Ernie: Thresh=  0.10000D-02 Tol=  0.10000D-05 Strict=F.
 Ernie:  19 primitive shells out of 124 were deleted.
 There are   114 symmetry adapted cartesian basis functions of A'  symmetry.
 There are    55 symmetry adapted cartesian basis functions of A"  symmetry.
 There are    93 symmetry adapted basis functions of A'  symmetry.
 There are    49 symmetry adapted basis functions of A"  symmetry.
   142 basis functions,   258 primitive gaussians,   169 cartesian basis functions
    15 alpha electrons       15 beta electrons
       nuclear repulsion energy        70.0563773409 Hartrees.
 IExCor=    0 DFT=F Ex=HF Corr=None ExCW=0 ScaHFX=  1.000000
 ScaDFX=  1.000000  1.000000  1.000000  1.000000 ScalE2=  1.000000  1.000000
 IRadAn=      5 IRanWt=     -1 IRanGd=            0 ICorTp=0 IEmpDi=  4
 NAtoms=    3 NActive=    3 NUniq=    3 SFac= 1.00D+00 NAtFMM=   60 NAOKFM=F Big=F
 Integral buffers will be    131072 words long.
 Raffenetti 1 integral format.
 Two-electron integral symmetry is turned on.
 Leave Link  301 at Wed May  4 19:06:12 2022, MaxMem=   754974720 cpu:               0.2 elap:               0.1
 (Enter /opt/cluster/programs/g16-c.01/g16/l302.exe)
 NPDir=0 NMtPBC=     1 NCelOv=     1 NCel=       1 NClECP=     1 NCelD=      1
         NCelK=      1 NCelE2=     1 NClLst=     1 CellRange=     0.0.
 One-electron integrals computed using PRISM.
 One-electron integral symmetry used in STVInt
 NBasis=   142 RedAO= T EigKep=  1.06D-04  NBF=    93    49
 NBsUse=   142 1.00D-06 EigRej= -1.00D+00 NBFU=    93    49
 Leave Link  302 at Wed May  4 19:06:12 2022, MaxMem=   754974720 cpu:               0.6 elap:               0.2
 (Enter /opt/cluster/programs/g16-c.01/g16/l303.exe)
 DipDrv:  MaxL=1.
 Leave Link  303 at Wed May  4 19:06:12 2022, MaxMem=   754974720 cpu:               0.2 elap:               0.0
 (Enter /opt/cluster/programs/g16-c.01/g16/l401.exe)
 Initial guess from the checkpoint file:  "gaussian_6_scn.chk"
 B after Tr=    -0.000000   -0.000000   -0.000000
         Rot=    1.000000   -0.000000   -0.000000   -0.000221 Ang=  -0.03 deg.
 Guess basis will be translated and rotated to current coordinates.
 JPrj=2 DoOrth=T DoCkMO=T.
 Initial guess orbital symmetries:
       Occupied  (A') (A') (A') (A') (A') (A") (A') (A') (A') (A')
                 (A') (A") (A') (A") (A')
       Virtual   (A') (A') (A') (A") (A') (A") (A') (A") (A') (A')
                 (A') (A') (A") (A') (A') (A") (A') (A') (A") (A')
                 (A") (A') (A') (A") (A') (A') (A") (A') (A') (A")
                 (A') (A') (A") (A') (A") (A') (A") (A') (A') (A")
                 (A') (A') (A") (A') (A") (A') (A') (A") (A') (A")
                 (A') (A') (A") (A') (A') (A") (A') (A") (A') (A')
                 (A") (A') (A') (A") (A') (A") (A') (A") (A') (A')
                 (A') (A") (A') (A") (A') (A") (A') (A') (A') (A")
                 (A") (A') (A") (A') (A') (A") (A') (A") (A') (A')
                 (A') (A") (A') (A') (A") (A') (A") (A') (A") (A')
                 (A') (A") (A') (A") (A') (A') (A") (A') (A') (A")
                 (A') (A') (A") (A') (A') (A") (A") (A') (A') (A")
                 (A') (A") (A') (A') (A') (A') (A')
 The electronic state of the initial guess is 1-A'.
 Leave Link  401 at Wed May  4 19:06:12 2022, MaxMem=   754974720 cpu:               1.0 elap:               0.4
 (Enter /opt/cluster/programs/g16-c.01/g16/l502.exe)
 Keep R1 ints in memory in symmetry-blocked form, NReq=77616006.
 FoFCou: FMM=F IPFlag=           0 FMFlag=           0 FMFlg1=           0
         NFxFlg=           0 DoJE=F BraDBF=F KetDBF=F FulRan=T
         wScrn=  0.000000 ICntrl=       600 IOpCl=  0 I1Cent=           0 NGrid=           0
         NMat0=    1 NMatS0=  10153 NMatT0=    0 NMatD0=    1 NMtDS0=    0 NMtDT0=    0
 Petite list used in FoFCou.
 Closed shell SCF:
 Using DIIS extrapolation, IDIIS=  1040.
 NGot=   754974720 LenX=   728846748 LenY=   728817746
 Requested convergence on RMS density matrix=1.00D-08 within 200 cycles.
 Requested convergence on MAX density matrix=1.00D-06.
 Requested convergence on             energy=1.00D-06.
 No special actions if energy rises.

 Cycle   1  Pass 1  IDiag  1:
 E= -489.929604302858    
 DIIS: error= 1.11D-04 at cycle   1 NSaved=   1.
 NSaved= 1 IEnMin= 1 EnMin= -489.929604302858     IErMin= 1 ErrMin= 1.11D-04
 ErrMax= 1.11D-04  0.00D+00 EMaxC= 1.00D-01 BMatC= 1.38D-06 BMatP= 1.38D-06
 IDIUse=3 WtCom= 9.99D-01 WtEn= 1.11D-03
 Coeff-Com:  0.100D+01
 Coeff-En:   0.100D+01
 Coeff:      0.100D+01
 Gap=     0.309 Goal=   None    Shift=    0.000
 RMSDP=1.15D-05 MaxDP=2.46D-04              OVMax= 4.06D-04

 Cycle   2  Pass 1  IDiag  1:
 E= -489.929606158213     Delta-E=       -0.000001855356 Rises=F Damp=F
 DIIS: error= 6.00D-05 at cycle   2 NSaved=   2.
 NSaved= 2 IEnMin= 2 EnMin= -489.929606158213     IErMin= 2 ErrMin= 6.00D-05
 ErrMax= 6.00D-05  0.00D+00 EMaxC= 1.00D-01 BMatC= 2.05D-07 BMatP= 1.38D-06
 IDIUse=1 WtCom= 1.00D+00 WtEn= 0.00D+00
 Coeff-Com:  0.113D+00 0.887D+00
 Coeff:      0.113D+00 0.887D+00
 Gap=     0.309 Goal=   None    Shift=    0.000
 RMSDP=3.96D-06 MaxDP=9.95D-05 DE=-1.86D-06 OVMax= 2.10D-04

 Cycle   3  Pass 1  IDiag  1:
 E= -489.929606403988     Delta-E=       -0.000000245775 Rises=F Damp=F
 DIIS: error= 3.87D-05 at cycle   3 NSaved=   3.
 NSaved= 3 IEnMin= 3 EnMin= -489.929606403988     IErMin= 3 ErrMin= 3.87D-05
 ErrMax= 3.87D-05  0.00D+00 EMaxC= 1.00D-01 BMatC= 7.54D-08 BMatP= 2.05D-07
 IDIUse=1 WtCom= 1.00D+00 WtEn= 0.00D+00
 Coeff-Com: -0.911D-01 0.328D+00 0.763D+00
 Coeff:     -0.911D-01 0.328D+00 0.763D+00
 Gap=     0.309 Goal=   None    Shift=    0.000
 RMSDP=1.44D-06 MaxDP=3.23D-05 DE=-2.46D-07 OVMax= 1.10D-04

 Cycle   4  Pass 1  IDiag  1:
 E= -489.929606499413     Delta-E=       -0.000000095426 Rises=F Damp=F
 DIIS: error= 1.18D-05 at cycle   4 NSaved=   4.
 NSaved= 4 IEnMin= 4 EnMin= -489.929606499413     IErMin= 4 ErrMin= 1.18D-05
 ErrMax= 1.18D-05  0.00D+00 EMaxC= 1.00D-01 BMatC= 5.96D-09 BMatP= 7.54D-08
 IDIUse=1 WtCom= 1.00D+00 WtEn= 0.00D+00
 Coeff-Com: -0.241D-01-0.379D-01 0.138D+00 0.924D+00
 Coeff:     -0.241D-01-0.379D-01 0.138D+00 0.924D+00
 Gap=     0.309 Goal=   None    Shift=    0.000
 RMSDP=7.74D-07 MaxDP=1.50D-05 DE=-9.54D-08 OVMax= 5.68D-05

 Cycle   5  Pass 1  IDiag  1:
 E= -489.929606513563     Delta-E=       -0.000000014149 Rises=F Damp=F
 DIIS: error= 4.50D-06 at cycle   5 NSaved=   5.
 NSaved= 5 IEnMin= 5 EnMin= -489.929606513563     IErMin= 5 ErrMin= 4.50D-06
 ErrMax= 4.50D-06  0.00D+00 EMaxC= 1.00D-01 BMatC= 1.20D-09 BMatP= 5.96D-09
 IDIUse=1 WtCom= 1.00D+00 WtEn= 0.00D+00
 Coeff-Com:  0.138D-01-0.657D-01-0.127D+00 0.143D+00 0.104D+01
 Coeff:      0.138D-01-0.657D-01-0.127D+00 0.143D+00 0.104D+01
 Gap=     0.309 Goal=   None    Shift=    0.000
 RMSDP=4.56D-07 MaxDP=1.32D-05 DE=-1.41D-08 OVMax= 3.14D-05

 Cycle   6  Pass 1  IDiag  1:
 E= -489.929606516888     Delta-E=       -0.000000003326 Rises=F Damp=F
 DIIS: error= 1.15D-06 at cycle   6 NSaved=   6.
 NSaved= 6 IEnMin= 6 EnMin= -489.929606516888     IErMin= 6 ErrMin= 1.15D-06
 ErrMax= 1.15D-06  0.00D+00 EMaxC= 1.00D-01 BMatC= 9.80D-11 BMatP= 1.20D-09
 IDIUse=1 WtCom= 1.00D+00 WtEn= 0.00D+00
 Coeff-Com:  0.251D-02 0.911D-02-0.204D-01-0.105D+00-0.524D-01 0.117D+01
 Coeff:      0.251D-02 0.911D-02-0.204D-01-0.105D+00-0.524D-01 0.117D+01
 Gap=     0.309 Goal=   None    Shift=    0.000
 RMSDP=1.63D-07 MaxDP=4.42D-06 DE=-3.33D-09 OVMax= 1.02D-05

 Cycle   7  Pass 1  IDiag  1:
 E= -489.929606517239     Delta-E=       -0.000000000351 Rises=F Damp=F
 DIIS: error= 4.00D-07 at cycle   7 NSaved=   7.
 NSaved= 7 IEnMin= 7 EnMin= -489.929606517239     IErMin= 7 ErrMin= 4.00D-07
 ErrMax= 4.00D-07  0.00D+00 EMaxC= 1.00D-01 BMatC= 1.03D-11 BMatP= 9.80D-11
 IDIUse=1 WtCom= 1.00D+00 WtEn= 0.00D+00
 Coeff-Com: -0.122D-02 0.831D-02 0.786D-02-0.186D-01-0.117D+00 0.113D+00
 Coeff-Com:  0.101D+01
 Coeff:     -0.122D-02 0.831D-02 0.786D-02-0.186D-01-0.117D+00 0.113D+00
 Coeff:      0.101D+01
 Gap=     0.309 Goal=   None    Shift=    0.000
 RMSDP=4.88D-08 MaxDP=1.73D-06 DE=-3.51D-10 OVMax= 3.14D-06

 Cycle   8  Pass 1  IDiag  1:
 E= -489.929606517264     Delta-E=       -0.000000000025 Rises=F Damp=F
 DIIS: error= 7.33D-08 at cycle   8 NSaved=   8.
 NSaved= 8 IEnMin= 8 EnMin= -489.929606517264     IErMin= 8 ErrMin= 7.33D-08
 ErrMax= 7.33D-08  0.00D+00 EMaxC= 1.00D-01 BMatC= 5.31D-13 BMatP= 1.03D-11
 IDIUse=1 WtCom= 1.00D+00 WtEn= 0.00D+00
 Coeff-Com:  0.346D-04-0.157D-02 0.609D-04 0.996D-02 0.193D-01-0.911D-01
 Coeff-Com: -0.182D+00 0.125D+01
 Coeff:      0.346D-04-0.157D-02 0.609D-04 0.996D-02 0.193D-01-0.911D-01
 Coeff:     -0.182D+00 0.125D+01
 Gap=     0.309 Goal=   None    Shift=    0.000
 RMSDP=1.81D-08 MaxDP=7.38D-07 DE=-2.50D-11 OVMax= 7.45D-07

 Cycle   9  Pass 1  IDiag  1:
 E= -489.929606517268     Delta-E=       -0.000000000004 Rises=F Damp=F
 DIIS: error= 2.77D-08 at cycle   9 NSaved=   9.
 NSaved= 9 IEnMin= 9 EnMin= -489.929606517268     IErMin= 9 ErrMin= 2.77D-08
 ErrMax= 2.77D-08  0.00D+00 EMaxC= 1.00D-01 BMatC= 5.68D-14 BMatP= 5.31D-13
 IDIUse=1 WtCom= 1.00D+00 WtEn= 0.00D+00
 Coeff-Com:  0.105D-03-0.351D-03-0.798D-03-0.111D-02 0.538D-02 0.167D-01
 Coeff-Com: -0.399D-01-0.345D+00 0.136D+01
 Coeff:      0.105D-03-0.351D-03-0.798D-03-0.111D-02 0.538D-02 0.167D-01
 Coeff:     -0.399D-01-0.345D+00 0.136D+01
 Gap=     0.309 Goal=   None    Shift=    0.000
 RMSDP=5.24D-09 MaxDP=1.95D-07 DE=-3.87D-12 OVMax= 2.54D-07

 SCF Done:  E(RHF) =  -489.929606517     A.U. after    9 cycles
            NFock=  9  Conv=0.52D-08     -V/T= 2.0005
 KE= 4.896640071119D+02 PE=-1.310542667353D+03 EE= 2.608926763827D+02
 Leave Link  502 at Wed May  4 19:06:16 2022, MaxMem=   754974720 cpu:              11.5 elap:               3.2
 (Enter /opt/cluster/programs/g16-c.01/g16/l801.exe)
 ExpMin= 3.51D-02 ExpMax= 3.74D+05 ExpMxC= 1.18D+03 IAcc=3 IRadAn=         5 AccDes= 0.00D+00
 HarFok:  IExCor=  205 AccDes= 0.00D+00 IRadAn=         5 IDoV=-2 UseB2=F ITyADJ=14
 ICtDFT= 12500011 ScaDFX=  1.000000  1.000000  1.000000  1.000000
 Largest valence mixing into a core orbital is  5.37D-04
 Largest core mixing into a valence orbital is  1.40D-04
 Range of M.O.s used for correlation:     8   142
 NBasis=   142 NAE=    15 NBE=    15 NFC=     7 NFV=     0
 NROrb=    135 NOA=     8 NOB=     8 NVA=   127 NVB=   127

 **** Warning!!: The largest alpha MO coefficient is  0.18436095D+02

 Leave Link  801 at Wed May  4 19:06:16 2022, MaxMem=   754974720 cpu:               0.4 elap:               0.1
 (Enter /opt/cluster/programs/g16-c.01/g16/l906.exe)
 Frozen-core derivative calculation, NFC=   7 NFV=   0.
 FulOut=F Deriv=T AODrv=T NAtomX=     3
   MMem=          74  MDisk=           8 MDiskD=           8
  W3Min=      359970 MinDsk=      723803 NBas6D=         169
 NBas2D=       14809    NTT=       14365    LW2=     3500000
    MDV=   754677643 MDiskM=       22268 NBas2p=       14795
 Fully direct method using O(ONN) memory.
 IMap=   1   2   3   4   5   6   7   8   9  10  11  12  13  14  15
 JobTyp=1 Pass  1:  I=   8 to  15 NPSUse=  4 ParTrn=T ParDer=T DoDerP=T.
 Spin components of T(2) and E(2):
     alpha-alpha T2 =       0.2937456946D-01 E2=     -0.6969125116D-01
     alpha-beta  T2 =       0.1548014483D+00 E2=     -0.3968343844D+00
     beta-beta   T2 =       0.2937456946D-01 E2=     -0.6969125116D-01
 The integrals were generated   1 times.
 ANorm=    0.1101612721D+01
 E2 =    -0.5362168867D+00 EUMP2 =    -0.49046582340396D+03
 Leave Link  906 at Wed May  4 19:06:24 2022, MaxMem=   754974720 cpu:              34.4 elap:               8.6
 (Enter /opt/cluster/programs/g16-c.01/g16/l1002.exe)
 Minotr:  Closed shell wavefunction.
          Computing MP2/KS-MP2 derivatives.
          Using Z-Vector for PSCF gradient.
          Skipping F1 and S1 gradient terms here.
          IDoAtm=111
          Frozen-core window.
          Direct CPHF calculation.
          Differentiating once with respect to electric field.
                with respect to dipole field.
          Differentiating once with respect to nuclear coordinates.
          Using symmetry in CPHF.
          Requested convergence is 1.0D-10 RMS, and 1.0D-09 maximum.
          NewPWx=F KeepS1=T KeepF1=T KeepIn=T MapXYZ=F SortEE=F KeepMc=T.
 Keep R1 ints in memory in symmetry-blocked form, NReq=77616884.
 FoFCou: FMM=F IPFlag=           0 FMFlag=           0 FMFlg1=           0
         NFxFlg=           0 DoJE=F BraDBF=F KetDBF=F FulRan=T
         wScrn=  0.000000 ICntrl=       600 IOpCl=  0 I1Cent=           0 NGrid=           0
         NMat0=    1 NMatS0=  10153 NMatT0=    0 NMatD0=    1 NMtDS0=    0 NMtDT0=    0
 Petite list used in FoFCou.
          MDV=     754974720 using IRadAn=       5.
          Solving linear equations separately, MaxMat=       0.
          There are     1 degrees of freedom in the 1st order CPHF.  IDoFFX=0 NUNeed=     1.
 LinEq1:  Iter=  0 NonCon=     1 RMS=5.07D-03 Max=8.55D-02 NDo=     1
 AX will form     1 AO Fock derivatives at one time.
 LinEq1:  Iter=  1 NonCon=     1 RMS=1.75D-03 Max=1.80D-02 NDo=     1
 LinEq1:  Iter=  2 NonCon=     1 RMS=6.31D-04 Max=7.94D-03 NDo=     1
 LinEq1:  Iter=  3 NonCon=     1 RMS=3.49D-04 Max=4.92D-03 NDo=     1
 LinEq1:  Iter=  4 NonCon=     1 RMS=1.68D-04 Max=3.78D-03 NDo=     1
 LinEq1:  Iter=  5 NonCon=     1 RMS=6.26D-05 Max=8.02D-04 NDo=     1
 LinEq1:  Iter=  6 NonCon=     1 RMS=1.92D-05 Max=2.58D-04 NDo=     1
 LinEq1:  Iter=  7 NonCon=     1 RMS=4.60D-06 Max=5.18D-05 NDo=     1
 LinEq1:  Iter=  8 NonCon=     1 RMS=9.44D-07 Max=8.80D-06 NDo=     1
 LinEq1:  Iter=  9 NonCon=     1 RMS=2.63D-07 Max=3.49D-06 NDo=     1
 LinEq1:  Iter= 10 NonCon=     1 RMS=6.06D-08 Max=7.50D-07 NDo=     1
 LinEq1:  Iter= 11 NonCon=     1 RMS=1.29D-08 Max=1.14D-07 NDo=     1
 LinEq1:  Iter= 12 NonCon=     1 RMS=2.51D-09 Max=2.22D-08 NDo=     1
 LinEq1:  Iter= 13 NonCon=     1 RMS=3.89D-10 Max=3.72D-09 NDo=     1
 LinEq1:  Iter= 14 NonCon=     0 RMS=6.50D-11 Max=7.26D-10 NDo=     1
 Linear equations converged to 1.000D-10 1.000D-09 after    14 iterations.
 End of Minotr F.D. properties file   721 does not exist.
 End of Minotr F.D. properties file   722 does not exist.
 End of Minotr F.D. properties file   788 does not exist.
 Leave Link 1002 at Wed May  4 19:06:28 2022, MaxMem=   754974720 cpu:              13.3 elap:               3.6
 (Enter /opt/cluster/programs/g16-c.01/g16/l701.exe)
 ... and contract with generalized density number  2.
 Compute integral first derivatives.
 Leave Link  701 at Wed May  4 19:06:29 2022, MaxMem=   754974720 cpu:               2.2 elap:               0.8
 (Enter /opt/cluster/programs/g16-c.01/g16/l702.exe)
 L702 exits ... SP integral derivatives will be done elsewhere.
 Leave Link  702 at Wed May  4 19:06:29 2022, MaxMem=   754974720 cpu:               0.1 elap:               0.0
 (Enter /opt/cluster/programs/g16-c.01/g16/l703.exe)
 Integral derivatives from FoFJK, PRISM(SPDF).
 Compute integral first derivatives, UseDBF=F ICtDFT=           0.
 Calling FoFJK, ICntrl=  10002127 FMM=F ISym2X=1 I1Cent= 0 IOpClX= 0 NMat=1 NMatS=1 NMatT=0.
 FoFJK:  IHMeth= 1 ICntrl=10002127 DoSepK=F KAlg= 0 I1Cent=           0 FoldK=F
 IRaf=         0 NMat=       1 IRICut=       1 DoRegI=T DoRafI=F ISym2E= 1 IDoP0=0 IntGTp=1.
 FoFCou: FMM=F IPFlag=           0 FMFlag=      100000 FMFlg1=         800
         NFxFlg=           0 DoJE=F BraDBF=F KetDBF=F FulRan=T
         wScrn=  0.000000 ICntrl=  10002127 IOpCl=  0 I1Cent=           0 NGrid=           0
         NMat0=    1 NMatS0=      1 NMatT0=    0 NMatD0=    1 NMtDS0=    0 NMtDT0=    0
 Petite list used in FoFCou.
 Leave Link  703 at Wed May  4 19:06:34 2022, MaxMem=   754974720 cpu:              17.2 elap:               4.6
 (Enter /opt/cluster/programs/g16-c.01/g16/l716.exe)
 Dipole        =-1.95079757D-01-4.38740746D-01-1.12638389D-30
 ***** Axes restored to original set *****
 -------------------------------------------------------------------
 Center     Atomic                   Forces (Hartrees/Bohr)
 Number     Number              X              Y              Z
 -------------------------------------------------------------------
      1        7          -0.023691658    0.000000000    0.000257289
      2        6           0.038992432   -0.000000000   -0.007490267
      3       16          -0.015300774    0.000000000    0.007232978
 -------------------------------------------------------------------
 Cartesian Forces:  Max     0.038992432 RMS     0.016412408
 Leave Link  716 at Wed May  4 19:06:34 2022, MaxMem=   754974720 cpu:               0.1 elap:               0.0
 (Enter /opt/cluster/programs/g16-c.01/g16/l103.exe)

 GradGradGradGradGradGradGradGradGradGradGradGradGradGradGradGradGradGrad
 Berny optimization.
 Using GEDIIS/GDIIS optimizer.
 FormGI is forming the generalized inverse of G from B-inverse, IUseBI=4.
 Internal  Forces:  Max     0.053549458 RMS     0.030917222
 Search for a local minimum.
 Step number   3 out of a maximum of   20
 All quantities printed in internal units (Hartrees-Bohrs-Radians)
 RMS Force = .19930D-03 SwitMx=.10000D-02 MixMth= 2
 Mixed Optimization -- En-DIIS/RFO-DIIS
 Update second derivatives using D2CorX and points    1    2    3
 DE= -3.82D-06 DEPred=-3.55D-06 R= 1.08D+00
 TightC=F SS=  1.41D+00  RLast= 4.69D-03 DXNew= 5.0454D-01 1.4073D-02
 Trust test= 1.08D+00 RLast= 4.69D-03 DXMaxT set to 3.00D-01
 The second derivative matrix:
                          R1        R2        A1
           R1           1.15275
           R2           0.03198   0.30868
           A1           0.04890   0.04034   0.25701
 ITU=  1  1  0
 Use linear search instead of GDIIS.
     Eigenvalues ---    0.30747   1.153961000.00000
 RFO step:  Lambda=-7.61020632D-08 EMin= 3.07472309D-01
 Quartic linear search produced a step of  0.05355.
 Iteration  1 RMS(Cart)=  0.00014379 RMS(Int)=  0.00000000
 Iteration  2 RMS(Cart)=  0.00000000 RMS(Int)=  0.00000000
 Iteration  1 RMS(Cart)=  0.00000000 RMS(Int)=  0.00000000
 ITry= 1 IFail=0 DXMaxC= 1.88D-04 DCOld= 1.00D+10 DXMaxT= 3.00D-01 DXLimC= 3.00D+00 Rises=F
 ClnCor:  largest displacement from symmetrization is 4.67D-16 for atom     1.
 Variable       Old X    -DE/DX   Delta X   Delta X   Delta X     New X
                                 (Linear)    (Quad)   (Total)
    R1        2.26028  -0.00027   0.00002  -0.00026  -0.00024   2.26004
    R2        3.16412   0.00009   0.00025   0.00009   0.00034   3.16446
    A1        2.70526   0.05355   0.00000   0.00000   0.00000   2.70526
         Item               Value     Threshold  Converged?
 Maximum Force            0.000265     0.000450     YES
 RMS     Force            0.000199     0.000300     YES
 Maximum Displacement     0.000188     0.001800     YES
 RMS     Displacement     0.000144     0.001200     YES
 Predicted change in Energy=-4.749437D-08
 Optimization completed.
    -- Stationary point found.
                           ----------------------------
                           !   Optimized Parameters   !
                           ! (Angstroms and Degrees)  !
 --------------------------                            --------------------------
 ! Name  Definition              Value          Derivative Info.                !
 --------------------------------------------------------------------------------
 ! R1    R(1,2)                  1.1961         -DE/DX =   -0.0003              !
 ! R2    R(2,3)                  1.6744         -DE/DX =    0.0001              !
 ! A1    A(1,2,3)              155.0            -DE/DX =    0.0535              !
 --------------------------------------------------------------------------------
 Lowest energy point so far.  Saving SCF results.
 Largest change from initial coordinates is atom    1       0.007 Angstoms.
 GradGradGradGradGradGradGradGradGradGradGradGradGradGradGradGradGradGrad

 Leave Link  103 at Wed May  4 19:06:34 2022, MaxMem=   754974720 cpu:               0.0 elap:               0.0
 (Enter /opt/cluster/programs/g16-c.01/g16/l202.exe)
                          Input orientation:                          
 ---------------------------------------------------------------------
 Center     Atomic      Atomic             Coordinates (Angstroms)
 Number     Number       Type             X           Y           Z
 ---------------------------------------------------------------------
      1          7           0       -0.001441   -0.000000   -1.827562
      2          6           0       -0.001852    0.000000   -0.631476
      3         16           0        0.705248   -0.000000    0.886271
 ---------------------------------------------------------------------
                    Distance matrix (angstroms):
                    1          2          3
     1  N    0.000000
     2  C    1.196086   0.000000
     3  S    2.804335   1.674379   0.000000
 Stoichiometry    CNS(1-)
 Framework group  CS[SG(CNS)]
 Deg. of freedom     3
 Full point group                 CS      NOp   2
 RotChk:  IX=0 Diff= 2.69D-14
 Largest Abelian subgroup         CS      NOp   2
 Largest concise Abelian subgroup C1      NOp   1
                         Standard orientation:                         
 ---------------------------------------------------------------------
 Center     Atomic      Atomic             Coordinates (Angstroms)
 Number     Number       Type             X           Y           Z
 ---------------------------------------------------------------------
      1          7           0        0.693568    1.647750   -0.000000
      2          6           0        0.000000    0.673283   -0.000000
      3         16           0       -0.303436   -0.973372    0.000000
 ---------------------------------------------------------------------
 Rotational constants (GHZ):         629.0415112           6.1163496           6.0574513
 Leave Link  202 at Wed May  4 19:06:34 2022, MaxMem=   754974720 cpu:               0.0 elap:               0.0
 (Enter /opt/cluster/programs/g16-c.01/g16/l601.exe)
 Copying SCF densities to generalized density rwf, IOpCl= 0 IROHF=0.

 **********************************************************************

            Population analysis using the SCF Density.

 **********************************************************************

 Orbital symmetries:
       Occupied  (A') (A') (A') (A') (A') (A") (A') (A') (A') (A')
                 (A') (A") (A') (A") (A')
       Virtual   (A') (A') (A') (A") (A') (A") (A') (A") (A') (A')
                 (A') (A') (A") (A') (A') (A") (A') (A') (A") (A')
                 (A") (A') (A') (A") (A') (A') (A") (A') (A') (A")
                 (A') (A') (A") (A') (A") (A') (A") (A') (A') (A")
                 (A') (A') (A") (A') (A") (A') (A') (A") (A') (A")
                 (A') (A') (A") (A') (A') (A") (A') (A") (A') (A')
                 (A") (A') (A') (A") (A') (A") (A') (A") (A') (A')
                 (A') (A") (A') (A") (A') (A') (A") (A') (A') (A")
                 (A") (A') (A") (A') (A') (A") (A') (A") (A') (A')
                 (A') (A") (A') (A') (A") (A') (A") (A') (A") (A')
                 (A') (A") (A') (A") (A') (A') (A") (A') (A') (A")
                 (A') (A') (A") (A') (A') (A") (A") (A') (A') (A")
                 (A') (A") (A') (A') (A') (A') (A')
 The electronic state is 1-A'.
 Alpha  occ. eigenvalues --  -91.72996 -15.36332 -11.10225  -8.73182  -6.41376
 Alpha  occ. eigenvalues --   -6.41128  -6.41123  -0.99799  -0.76609  -0.41476
 Alpha  occ. eigenvalues --   -0.33302  -0.29854  -0.29797  -0.13906  -0.13560
 Alpha virt. eigenvalues --    0.17373   0.19192   0.22862   0.23647   0.23939
 Alpha virt. eigenvalues --    0.24046   0.24791   0.29604   0.30192   0.31115
 Alpha virt. eigenvalues --    0.34524   0.37925   0.39930   0.41990   0.44518
 Alpha virt. eigenvalues --    0.45082   0.45759   0.54170   0.54263   0.54571
 Alpha virt. eigenvalues --    0.55231   0.58177   0.62185   0.63964   0.64547
 Alpha virt. eigenvalues --    0.70618   0.71843   0.75212   0.77380   0.77394
 Alpha virt. eigenvalues --    0.78799   0.81107   0.82205   0.88292   0.90155
 Alpha virt. eigenvalues --    0.92778   0.95170   0.95636   1.00776   1.01969
 Alpha virt. eigenvalues --    1.02800   1.06526   1.06541   1.13604   1.14903
 Alpha virt. eigenvalues --    1.14957   1.26522   1.27766   1.28664   1.29104
 Alpha virt. eigenvalues --    1.31007   1.33365   1.35912   1.37914   1.42649
 Alpha virt. eigenvalues --    1.46386   1.47380   1.56082   1.57044   1.58870
 Alpha virt. eigenvalues --    1.72196   1.72769   1.74545   1.82020   1.85877
 Alpha virt. eigenvalues --    1.90266   1.92079   2.02901   2.03968   2.07822
 Alpha virt. eigenvalues --    2.13967   2.15515   2.18599   2.28541   2.29104
 Alpha virt. eigenvalues --    2.31388   2.31394   2.39258   2.45750   2.46392
 Alpha virt. eigenvalues --    2.52746   2.55371   2.59841   2.59896   2.60422
 Alpha virt. eigenvalues --    2.61071   2.66266   2.69058   2.74987   2.81883
 Alpha virt. eigenvalues --    2.98572   3.01183   3.23263   3.28720   3.30867
 Alpha virt. eigenvalues --    3.61597   3.67215   3.67510   3.70767   3.71091
 Alpha virt. eigenvalues --    3.79695   3.87386   3.92555   3.96181   3.98389
 Alpha virt. eigenvalues --    4.11908   4.13228   4.25945   4.67542   4.71689
 Alpha virt. eigenvalues --    4.82367   4.92166   5.20194   5.20238   5.46442
 Alpha virt. eigenvalues --    5.47694   5.66166   5.66891   5.81786   5.85817
 Alpha virt. eigenvalues --    6.19043   6.28099   6.33222   6.37329   6.75231
 Alpha virt. eigenvalues --   11.91269  16.19075
          Condensed to atoms (all electrons):
               1          2          3
     1  N    6.856878   0.683616  -0.110940
     2  C    0.683616   5.061239   0.345056
     3  S   -0.110940   0.345056  16.246417
 Mulliken charges:
               1
     1  N   -0.429555
     2  C   -0.089912
     3  S   -0.480533
 Sum of Mulliken charges =  -1.00000
 Mulliken charges with hydrogens summed into heavy atoms:
               1
     1  N   -0.429555
     2  C   -0.089912
     3  S   -0.480533
 Electronic spatial extent (au):  <R**2>=            223.0820
 Charge=             -1.0000 electrons
 Dipole moment (field-independent basis, Debye):
    X=             -0.6233    Y=             -1.1367    Z=             -0.0000  Tot=              1.2964
 Quadrupole moment (field-independent basis, Debye-Ang):
   XX=            -31.1209   YY=            -39.1414   ZZ=            -29.3765
   XY=             -4.5002   XZ=             -0.0000   YZ=             -0.0000
 Traceless Quadrupole moment (field-independent basis, Debye-Ang):
   XX=              2.0921   YY=             -5.9285   ZZ=              3.8364
   XY=             -4.5002   XZ=             -0.0000   YZ=             -0.0000
 Octapole moment (field-independent basis, Debye-Ang**2):
  XXX=              2.1730  YYY=            -17.2160  ZZZ=             -0.0000  XYY=             -5.9259
  XXY=             -0.0302  XXZ=             -0.0000  XZZ=              0.8885  YZZ=              1.9331
  YYZ=             -0.0000  XYZ=             -0.0000
 Hexadecapole moment (field-independent basis, Debye-Ang**3):
 XXXX=            -77.3196 YYYY=           -284.4853 ZZZZ=            -46.2708 XXXY=            -42.1464
 XXXZ=             -0.0000 YYYX=            -47.1835 YYYZ=             -0.0000 ZZZX=              0.0000
 ZZZY=             -0.0000 XXYY=            -62.8080 XXZZ=            -20.5117 YYZZ=            -54.1063
 XXYZ=             -0.0000 YYXZ=             -0.0000 ZZXY=            -13.5418
 N-N= 7.005637734086D+01 E-N=-1.310542667127D+03  KE= 4.896640071119D+02
 Symmetry A'   KE= 4.486610283106D+02
 Symmetry A"   KE= 4.100297880129D+01
 No NMR shielding tensors so no spin-rotation constants.
 Leave Link  601 at Wed May  4 19:06:34 2022, MaxMem=   754974720 cpu:               0.6 elap:               0.2
 (Enter /opt/cluster/programs/g16-c.01/g16/l9999.exe)
 Unable to Open any file for archive entry.
 1\1\GINC-NODE41\FOpt\RMP2-FC\Aug-CC-pVTZ\C1N1S1(1-)\TOEPFER\04-May-202
 2\0\\#P MP2/aug-cc-pVTZ scf(maxcycle=200) opt geom(AddGIC)\\Gaussian i
 nput\\-1,1\N,-0.0014405333,0.,-1.8275619488\C,-0.0018523564,0.,-0.6314
 755952\S,0.7052482986,0.,0.8862707764\\Version=ES64L-G16RevC.01\State=
 1-A'\HF=-489.9296065\MP2=-490.4658234\RMSD=5.244e-09\RMSF=1.641e-02\Di
 pole=0.0953141,0.,0.4706004\PG=CS [SG(C1N1S1)]\\@
 The archive entry for this job was punched.


 IN THE LONG RUN, DIGGING FOR TRUTH HAS ALWAYS PROVED NOT ONLY 
 MORE INTERESTING BUT MORE PROFITABLE THAN DIGGING FOR GOLD.

                             -- GEORGE R. HARRISON
 Job cpu time:       0 days  0 hours  4 minutes 27.9 seconds.
 Elapsed time:       0 days  0 hours  1 minutes 11.9 seconds.
 File lengths (MBytes):  RWF=     15 Int=      0 D2E=      0 Chk=      3 Scr=      1
 Normal termination of Gaussian 16 at Wed May  4 19:06:34 2022.
