 Entering Gaussian System, Link 0=/opt/cluster/programs/g16-c.01/g16/g16
 Input=/scratch/toepfer/jobs/tmp.5739908/gaussian_0_scn.com
 Output=/scratch/toepfer/jobs/tmp.5739908/gaussian_0_scn.out
 Initial command:
 /opt/cluster/programs/g16-c.01/g16/l1.exe "/scratch/toepfer/jobs/tmp.5739908/Gau-144472.inp" -scrdir="/scratch/toepfer/jobs/tmp.5739908/"
 Entering Link 1 = /opt/cluster/programs/g16-c.01/g16/l1.exe PID=    144473.
  
 Copyright (c) 1988-2019, Gaussian, Inc.  All Rights Reserved.
  
 This is part of the Gaussian(R) 16 program.  It is based on
 the Gaussian(R) 09 system (copyright 2009, Gaussian, Inc.),
 the Gaussian(R) 03 system (copyright 2003, Gaussian, Inc.),
 the Gaussian(R) 98 system (copyright 1998, Gaussian, Inc.),
 the Gaussian(R) 94 system (copyright 1995, Gaussian, Inc.),
 the Gaussian 92(TM) system (copyright 1992, Gaussian, Inc.),
 the Gaussian 90(TM) system (copyright 1990, Gaussian, Inc.),
 the Gaussian 88(TM) system (copyright 1988, Gaussian, Inc.),
 the Gaussian 86(TM) system (copyright 1986, Carnegie Mellon
 University), and the Gaussian 82(TM) system (copyright 1983,
 Carnegie Mellon University). Gaussian is a federally registered
 trademark of Gaussian, Inc.
  
 This software contains proprietary and confidential information,
 including trade secrets, belonging to Gaussian, Inc.
  
 This software is provided under written license and may be
 used, copied, transmitted, or stored only in accord with that
 written license.
  
 The following legend is applicable only to US Government
 contracts under FAR:
  
                    RESTRICTED RIGHTS LEGEND
  
 Use, reproduction and disclosure by the US Government is
 subject to restrictions as set forth in subparagraphs (a)
 and (c) of the Commercial Computer Software - Restricted
 Rights clause in FAR 52.227-19.
  
 Gaussian, Inc.
 340 Quinnipiac St., Bldg. 40, Wallingford CT 06492
  
  
 ---------------------------------------------------------------
 Warning -- This program may not be used in any manner that
 competes with the business of Gaussian, Inc. or will provide
 assistance to any competitor of Gaussian, Inc.  The licensee
 of this program is prohibited from giving any competitor of
 Gaussian, Inc. access to this program.  By using this program,
 the user acknowledges that Gaussian, Inc. is engaged in the
 business of creating and licensing software in the field of
 computational chemistry and represents and warrants to the
 licensee that it is not a competitor of Gaussian, Inc. and that
 it will not use this program in any manner prohibited above.
 ---------------------------------------------------------------
  

 Cite this work as:
 Gaussian 16, Revision C.01,
 M. J. Frisch, G. W. Trucks, H. B. Schlegel, G. E. Scuseria, 
 M. A. Robb, J. R. Cheeseman, G. Scalmani, V. Barone, 
 G. A. Petersson, H. Nakatsuji, X. Li, M. Caricato, A. V. Marenich, 
 J. Bloino, B. G. Janesko, R. Gomperts, B. Mennucci, H. P. Hratchian, 
 J. V. Ortiz, A. F. Izmaylov, J. L. Sonnenberg, D. Williams-Young, 
 F. Ding, F. Lipparini, F. Egidi, J. Goings, B. Peng, A. Petrone, 
 T. Henderson, D. Ranasinghe, V. G. Zakrzewski, J. Gao, N. Rega, 
 G. Zheng, W. Liang, M. Hada, M. Ehara, K. Toyota, R. Fukuda, 
 J. Hasegawa, M. Ishida, T. Nakajima, Y. Honda, O. Kitao, H. Nakai, 
 T. Vreven, K. Throssell, J. A. Montgomery, Jr., J. E. Peralta, 
 F. Ogliaro, M. J. Bearpark, J. J. Heyd, E. N. Brothers, K. N. Kudin, 
 V. N. Staroverov, T. A. Keith, R. Kobayashi, J. Normand, 
 K. Raghavachari, A. P. Rendell, J. C. Burant, S. S. Iyengar, 
 J. Tomasi, M. Cossi, J. M. Millam, M. Klene, C. Adamo, R. Cammi, 
 J. W. Ochterski, R. L. Martin, K. Morokuma, O. Farkas, 
 J. B. Foresman, and D. J. Fox, Gaussian, Inc., Wallingford CT, 2019.
 
 ******************************************
 Gaussian 16:  ES64L-G16RevC.01  3-Jul-2019
                 4-May-2022 
 ******************************************
 %nproc=4
 Will use up to    4 processors via shared memory.
 %mem=5760MB
 %chk=gaussian_0_scn.chk
 -----------------------------------------------------
 #P MP2/aug-cc-pVTZ scf(maxcycle=200) opt geom(AddGIC)
 -----------------------------------------------------
 1/18=20,19=15,38=1,145=903/1,3;
 2/9=110,12=2,17=6,18=5,40=1/2;
 3/5=16,6=1,7=10,11=9,25=1,30=1,71=1/1,2,3;
 4//1;
 5/5=2,7=200,38=5/2;
 8/6=4,10=1/1;
 9/15=2,16=-3/6;
 10/5=1/2;
 6/7=2,8=2,9=2,10=2/1;
 7/12=2/1,2,3,16;
 1/18=20,19=15,145=903/3(2);
 2/9=110/2;
 99//99;
 2/9=110/2;
 3/5=16,6=1,7=10,11=9,25=1,30=1,71=1/1,2,3;
 4/5=5,16=3,69=1/1;
 5/5=2,7=200,38=5/2;
 8/6=4,10=1/1;
 9/15=2,16=-3/6;
 10/5=1/2;
 7/12=2/1,2,3,16;
 1/18=20,19=15,145=903/3(-8);
 2/9=110/2;
 6/7=2,8=2,9=2,10=2/1;
 99/9=10/99;
 Leave Link    1 at Wed May  4 19:03:33 2022, MaxMem=   754974720 cpu:               0.1 elap:               0.0
 (Enter /opt/cluster/programs/g16-c.01/g16/l101.exe)
 --------------
 Gaussian input
 --------------
 Symbolic Z-matrix:
 Charge = -1 Multiplicity = 1
 N                     0.        0.       -1.82094 
 C                     0.        0.       -0.62859 
 S                     0.02899   0.        1.03213 
 
 Initializing the GIC definitions file.
 Number of initial coordinates =     4
 Number of input entries/lines =     1
 Number of additional coordinates =     1
 Number of removed coordinates =     0
 Number of frozen coordinates =     1
 Number of final active and frozen coordinates =     5
 ITRead=  0  0  0
 MicOpt= -1 -1 -1
 NAtoms=      3 NQM=        3 NQMF=       0 NMMI=      0 NMMIF=      0
                NMic=       0 NMicF=      0.
                    Isotopes and Nuclear Properties:
 (Nuclear quadrupole moments (NQMom) in fm**2, nuclear magnetic moments (NMagM)
  in nuclear magnetons)

  Atom         1           2           3
 IAtWgt=          14          12          32
 AtmWgt=  14.0030740  12.0000000  31.9720718
 NucSpn=           2           0           0
 AtZEff=  -0.0000000  -0.0000000  -0.0000000
 NQMom=    2.0440000   0.0000000   0.0000000
 NMagM=    0.4037610   0.0000000   0.0000000
 AtZNuc=   7.0000000   6.0000000  16.0000000
 Leave Link  101 at Wed May  4 19:03:33 2022, MaxMem=   754974720 cpu:               2.7 elap:               0.7
 (Enter /opt/cluster/programs/g16-c.01/g16/l103.exe)

 GradGradGradGradGradGradGradGradGradGradGradGradGradGradGradGradGradGrad
 Berny optimization.
 Initialization pass.
                           ----------------------------
                           !    Initial Parameters    !
                           ! (Angstroms and Degrees)  !
 --------------------------                            --------------------------
 ! Name  Definition              Value          Derivative Info.                !
 --------------------------------------------------------------------------------
 ! R1    R(1,2)                  1.1924         estimate D2E/DX2                !
 ! R2    R(2,3)                  1.661          estimate D2E/DX2                !
 ! A1    L(1,2,3,-2,-1)        179.0            estimate D2E/DX2                !
 ! A2    L(1,2,3,-1,-2)        180.0            estimate D2E/DX2                !
 ! A3    A(1,2,3)              179.0            Frozen                          !
 --------------------------------------------------------------------------------
 Trust Radius=3.00D-01 FncErr=1.00D-07 GrdErr=1.00D-07 EigMax=2.50D+02 EigMin=1.00D-04
 Number of steps in this run=     20 maximum allowed number of steps=    100.
 GradGradGradGradGradGradGradGradGradGradGradGradGradGradGradGradGradGrad

 Leave Link  103 at Wed May  4 19:03:33 2022, MaxMem=   754974720 cpu:               0.1 elap:               0.0
 (Enter /opt/cluster/programs/g16-c.01/g16/l202.exe)
                          Input orientation:                          
 ---------------------------------------------------------------------
 Center     Atomic      Atomic             Coordinates (Angstroms)
 Number     Number       Type             X           Y           Z
 ---------------------------------------------------------------------
      1          7           0        0.000000    0.000000   -1.820943
      2          6           0        0.000000    0.000000   -0.628586
      3         16           0        0.028988    0.000000    1.032129
 ---------------------------------------------------------------------
                    Distance matrix (angstroms):
                    1          2          3
     1  N    0.000000
     2  C    1.192357   0.000000
     3  S    2.853219   1.660968   0.000000
 Stoichiometry    CNS(1-)
 Framework group  CS[SG(CNS)]
 Deg. of freedom     3
 Full point group                 CS      NOp   2
 Largest Abelian subgroup         CS      NOp   2
 Largest concise Abelian subgroup C1      NOp   1
                         Standard orientation:                         
 ---------------------------------------------------------------------
 Center     Atomic      Atomic             Coordinates (Angstroms)
 Number     Number       Type             X           Y           Z
 ---------------------------------------------------------------------
      1          7           0        0.030334    1.820621   -0.000000
      2          6           0        0.000000    0.628650   -0.000000
      3         16           0       -0.013271   -1.032265    0.000000
 ---------------------------------------------------------------------
 Rotational constants (GHZ):      389134.2512013           5.9286471           5.9285568
 Leave Link  202 at Wed May  4 19:03:33 2022, MaxMem=   754974720 cpu:               0.1 elap:               0.0
 (Enter /opt/cluster/programs/g16-c.01/g16/l301.exe)
 Standard basis: Aug-CC-pVTZ (5D, 7F)
 Ernie: Thresh=  0.10000D-02 Tol=  0.10000D-05 Strict=F.
 Ernie:  19 primitive shells out of 124 were deleted.
 There are   114 symmetry adapted cartesian basis functions of A'  symmetry.
 There are    55 symmetry adapted cartesian basis functions of A"  symmetry.
 There are    93 symmetry adapted basis functions of A'  symmetry.
 There are    49 symmetry adapted basis functions of A"  symmetry.
   142 basis functions,   258 primitive gaussians,   169 cartesian basis functions
    15 alpha electrons       15 beta electrons
       nuclear repulsion energy        69.9973795690 Hartrees.
 IExCor=    0 DFT=F Ex=HF Corr=None ExCW=0 ScaHFX=  1.000000
 ScaDFX=  1.000000  1.000000  1.000000  1.000000 ScalE2=  1.000000  1.000000
 IRadAn=      5 IRanWt=     -1 IRanGd=            0 ICorTp=0 IEmpDi=  4
 NAtoms=    3 NActive=    3 NUniq=    3 SFac= 1.00D+00 NAtFMM=   60 NAOKFM=F Big=F
 Integral buffers will be    131072 words long.
 Raffenetti 1 integral format.
 Two-electron integral symmetry is turned on.
 Leave Link  301 at Wed May  4 19:03:34 2022, MaxMem=   754974720 cpu:               0.2 elap:               0.1
 (Enter /opt/cluster/programs/g16-c.01/g16/l302.exe)
 NPDir=0 NMtPBC=     1 NCelOv=     1 NCel=       1 NClECP=     1 NCelD=      1
         NCelK=      1 NCelE2=     1 NClLst=     1 CellRange=     0.0.
 One-electron integrals computed using PRISM.
 One-electron integral symmetry used in STVInt
 NBasis=   142 RedAO= T EigKep=  1.02D-04  NBF=    93    49
 NBsUse=   142 1.00D-06 EigRej= -1.00D+00 NBFU=    93    49
 Leave Link  302 at Wed May  4 19:03:34 2022, MaxMem=   754974720 cpu:               0.5 elap:               0.2
 (Enter /opt/cluster/programs/g16-c.01/g16/l303.exe)
 DipDrv:  MaxL=1.
 Leave Link  303 at Wed May  4 19:03:34 2022, MaxMem=   754974720 cpu:               0.2 elap:               0.1
 (Enter /opt/cluster/programs/g16-c.01/g16/l401.exe)
 ExpMin= 3.51D-02 ExpMax= 3.74D+05 ExpMxC= 1.18D+03 IAcc=3 IRadAn=         5 AccDes= 0.00D+00
 Harris functional with IExCor=  205 and IRadAn=       5 diagonalized for initial guess.
 HarFok:  IExCor=  205 AccDes= 0.00D+00 IRadAn=         5 IDoV= 1 UseB2=F ITyADJ=14
 ICtDFT=  3500011 ScaDFX=  1.000000  1.000000  1.000000  1.000000
 FoFCou: FMM=F IPFlag=           0 FMFlag=      100000 FMFlg1=           0
         NFxFlg=           0 DoJE=T BraDBF=F KetDBF=T FulRan=T
         wScrn=  0.000000 ICntrl=       500 IOpCl=  0 I1Cent=   200000004 NGrid=           0
         NMat0=    1 NMatS0=      1 NMatT0=    0 NMatD0=    1 NMtDS0=    0 NMtDT0=    0
 Petite list used in FoFCou.
 Harris En= -489.767104338948    
 JPrj=0 DoOrth=F DoCkMO=F.
 Initial guess orbital symmetries:
       Occupied  (A') (A') (A') (A') (A') (A') (A") (A') (A') (A')
                 (A') (A") (A') (A") (A')
       Virtual   (A') (A") (A') (A') (A') (A") (A') (A') (A") (A')
                 (A') (A") (A') (A') (A") (A') (A') (A') (A") (A')
                 (A") (A') (A') (A") (A') (A') (A") (A') (A') (A")
                 (A') (A') (A") (A') (A") (A") (A') (A') (A') (A")
                 (A') (A') (A") (A') (A") (A') (A') (A") (A') (A')
                 (A") (A') (A") (A') (A") (A') (A') (A') (A") (A')
                 (A") (A') (A') (A") (A') (A') (A") (A") (A') (A')
                 (A') (A") (A') (A') (A") (A') (A") (A') (A') (A")
                 (A') (A") (A') (A") (A') (A") (A') (A') (A") (A')
                 (A') (A") (A') (A") (A') (A') (A") (A') (A") (A')
                 (A') (A") (A') (A') (A") (A') (A") (A') (A') (A")
                 (A') (A') (A') (A") (A") (A') (A') (A") (A') (A")
                 (A') (A') (A") (A') (A') (A') (A')
 The electronic state of the initial guess is 1-A'.
 Leave Link  401 at Wed May  4 19:03:34 2022, MaxMem=   754974720 cpu:               1.1 elap:               0.3
 (Enter /opt/cluster/programs/g16-c.01/g16/l502.exe)
 Keep R1 ints in memory in symmetry-blocked form, NReq=77616006.
 FoFCou: FMM=F IPFlag=           0 FMFlag=           0 FMFlg1=           0
         NFxFlg=           0 DoJE=F BraDBF=F KetDBF=F FulRan=T
         wScrn=  0.000000 ICntrl=       600 IOpCl=  0 I1Cent=           0 NGrid=           0
         NMat0=    1 NMatS0=  10153 NMatT0=    0 NMatD0=    1 NMtDS0=    0 NMtDT0=    0
 Petite list used in FoFCou.
 Closed shell SCF:
 Using DIIS extrapolation, IDIIS=  1040.
 NGot=   754974720 LenX=   728846748 LenY=   728817746
 Requested convergence on RMS density matrix=1.00D-08 within 200 cycles.
 Requested convergence on MAX density matrix=1.00D-06.
 Requested convergence on             energy=1.00D-06.
 No special actions if energy rises.

 Cycle   1  Pass 1  IDiag  1:
 E= -489.754714014778    
 DIIS: error= 4.45D-02 at cycle   1 NSaved=   1.
 NSaved= 1 IEnMin= 1 EnMin= -489.754714014778     IErMin= 1 ErrMin= 4.45D-02
 ErrMax= 4.45D-02  0.00D+00 EMaxC= 1.00D-01 BMatC= 3.50D-01 BMatP= 3.50D-01
 IDIUse=3 WtCom= 5.55D-01 WtEn= 4.45D-01
 Coeff-Com:  0.100D+01
 Coeff-En:   0.100D+01
 Coeff:      0.100D+01
 Gap=     0.610 Goal=   None    Shift=    0.000
 GapD=    0.610 DampG=2.000 DampE=0.500 DampFc=1.0000 IDamp=-1.
 RMSDP=3.36D-03 MaxDP=6.90D-02              OVMax= 2.12D-01

 Cycle   2  Pass 1  IDiag  1:
 E= -489.870457684999     Delta-E=       -0.115743670221 Rises=F Damp=F
 DIIS: error= 3.49D-02 at cycle   2 NSaved=   2.
 NSaved= 2 IEnMin= 2 EnMin= -489.870457684999     IErMin= 2 ErrMin= 3.49D-02
 ErrMax= 3.49D-02  0.00D+00 EMaxC= 1.00D-01 BMatC= 7.55D-02 BMatP= 3.50D-01
 IDIUse=3 WtCom= 6.51D-01 WtEn= 3.49D-01
 Coeff-Com:  0.258D+00 0.742D+00
 Coeff-En:   0.118D+00 0.882D+00
 Coeff:      0.209D+00 0.791D+00
 Gap=     0.387 Goal=   None    Shift=    0.000
 RMSDP=1.49D-03 MaxDP=4.24D-02 DE=-1.16D-01 OVMax= 9.47D-02

 Cycle   3  Pass 1  IDiag  1:
 E= -489.927489694466     Delta-E=       -0.057032009468 Rises=F Damp=F
 DIIS: error= 1.61D-02 at cycle   3 NSaved=   3.
 NSaved= 3 IEnMin= 3 EnMin= -489.927489694466     IErMin= 3 ErrMin= 1.61D-02
 ErrMax= 1.61D-02  0.00D+00 EMaxC= 1.00D-01 BMatC= 1.73D-02 BMatP= 7.55D-02
 IDIUse=3 WtCom= 8.39D-01 WtEn= 1.61D-01
 Coeff-Com: -0.172D-01 0.305D+00 0.712D+00
 Coeff-En:   0.000D+00 0.602D-01 0.940D+00
 Coeff:     -0.144D-01 0.266D+00 0.748D+00
 Gap=     0.321 Goal=   None    Shift=    0.000
 RMSDP=6.11D-04 MaxDP=1.47D-02 DE=-5.70D-02 OVMax= 5.11D-02

 Cycle   4  Pass 1  IDiag  1:
 E= -489.942535293637     Delta-E=       -0.015045599170 Rises=F Damp=F
 DIIS: error= 4.63D-03 at cycle   4 NSaved=   4.
 NSaved= 4 IEnMin= 4 EnMin= -489.942535293637     IErMin= 4 ErrMin= 4.63D-03
 ErrMax= 4.63D-03  0.00D+00 EMaxC= 1.00D-01 BMatC= 1.17D-03 BMatP= 1.73D-02
 IDIUse=3 WtCom= 9.54D-01 WtEn= 4.63D-02
 Coeff-Com: -0.142D-01 0.568D-01 0.280D+00 0.677D+00
 Coeff-En:   0.000D+00 0.000D+00 0.000D+00 0.100D+01
 Coeff:     -0.135D-01 0.541D-01 0.267D+00 0.692D+00
 Gap=     0.312 Goal=   None    Shift=    0.000
 RMSDP=1.44D-04 MaxDP=2.99D-03 DE=-1.50D-02 OVMax= 1.26D-02

 Cycle   5  Pass 1  IDiag  1:
 E= -489.943672214989     Delta-E=       -0.001136921352 Rises=F Damp=F
 DIIS: error= 1.09D-03 at cycle   5 NSaved=   5.
 NSaved= 5 IEnMin= 5 EnMin= -489.943672214989     IErMin= 5 ErrMin= 1.09D-03
 ErrMax= 1.09D-03  0.00D+00 EMaxC= 1.00D-01 BMatC= 6.55D-05 BMatP= 1.17D-03
 IDIUse=3 WtCom= 9.89D-01 WtEn= 1.09D-02
 Coeff-Com:  0.225D-02-0.399D-01-0.887D-01 0.623D-01 0.106D+01
 Coeff-En:   0.000D+00 0.000D+00 0.000D+00 0.000D+00 0.100D+01
 Coeff:      0.223D-02-0.395D-01-0.877D-01 0.616D-01 0.106D+01
 Gap=     0.312 Goal=   None    Shift=    0.000
 RMSDP=7.76D-05 MaxDP=1.83D-03 DE=-1.14D-03 OVMax= 4.46D-03

 Cycle   6  Pass 1  IDiag  1:
 E= -489.943811952850     Delta-E=       -0.000139737862 Rises=F Damp=F
 DIIS: error= 2.44D-04 at cycle   6 NSaved=   6.
 NSaved= 6 IEnMin= 6 EnMin= -489.943811952850     IErMin= 6 ErrMin= 2.44D-04
 ErrMax= 2.44D-04  0.00D+00 EMaxC= 1.00D-01 BMatC= 4.99D-06 BMatP= 6.55D-05
 IDIUse=3 WtCom= 9.98D-01 WtEn= 2.44D-03
 Coeff-Com:  0.969D-03-0.988D-02-0.298D-01-0.545D-01 0.881D-01 0.101D+01
 Coeff-En:   0.000D+00 0.000D+00 0.000D+00 0.000D+00 0.000D+00 0.100D+01
 Coeff:      0.967D-03-0.986D-02-0.297D-01-0.544D-01 0.879D-01 0.101D+01
 Gap=     0.313 Goal=   None    Shift=    0.000
 RMSDP=2.54D-05 MaxDP=4.92D-04 DE=-1.40D-04 OVMax= 1.66D-03

 Cycle   7  Pass 1  IDiag  1:
 E= -489.943826775384     Delta-E=       -0.000014822534 Rises=F Damp=F
 DIIS: error= 1.48D-04 at cycle   7 NSaved=   7.
 NSaved= 7 IEnMin= 7 EnMin= -489.943826775384     IErMin= 7 ErrMin= 1.48D-04
 ErrMax= 1.48D-04  0.00D+00 EMaxC= 1.00D-01 BMatC= 6.05D-07 BMatP= 4.99D-06
 IDIUse=3 WtCom= 9.99D-01 WtEn= 1.48D-03
 Coeff-Com: -0.115D-03 0.425D-02 0.107D-01-0.118D-01-0.112D+00-0.112D+00
 Coeff-Com:  0.122D+01
 Coeff-En:   0.000D+00 0.000D+00 0.000D+00 0.000D+00 0.000D+00 0.000D+00
 Coeff-En:   0.100D+01
 Coeff:     -0.115D-03 0.424D-02 0.106D-01-0.118D-01-0.112D+00-0.112D+00
 Coeff:      0.122D+01
 Gap=     0.313 Goal=   None    Shift=    0.000
 RMSDP=1.04D-05 MaxDP=2.91D-04 DE=-1.48D-05 OVMax= 7.58D-04

 Cycle   8  Pass 1  IDiag  1:
 E= -489.943828760843     Delta-E=       -0.000001985459 Rises=F Damp=F
 DIIS: error= 3.26D-05 at cycle   8 NSaved=   8.
 NSaved= 8 IEnMin= 8 EnMin= -489.943828760843     IErMin= 8 ErrMin= 3.26D-05
 ErrMax= 3.26D-05  0.00D+00 EMaxC= 1.00D-01 BMatC= 2.95D-08 BMatP= 6.05D-07
 IDIUse=1 WtCom= 1.00D+00 WtEn= 0.00D+00
 Coeff-Com: -0.761D-04-0.193D-03-0.624D-04 0.507D-02 0.241D-01-0.249D-01
 Coeff-Com: -0.335D+00 0.133D+01
 Coeff:     -0.761D-04-0.193D-03-0.624D-04 0.507D-02 0.241D-01-0.249D-01
 Coeff:     -0.335D+00 0.133D+01
 Gap=     0.313 Goal=   None    Shift=    0.000
 RMSDP=2.31D-06 MaxDP=6.00D-05 DE=-1.99D-06 OVMax= 1.63D-04

 Cycle   9  Pass 1  IDiag  1:
 E= -489.943828848534     Delta-E=       -0.000000087691 Rises=F Damp=F
 DIIS: error= 7.02D-06 at cycle   9 NSaved=   9.
 NSaved= 9 IEnMin= 9 EnMin= -489.943828848534     IErMin= 9 ErrMin= 7.02D-06
 ErrMax= 7.02D-06  0.00D+00 EMaxC= 1.00D-01 BMatC= 9.81D-10 BMatP= 2.95D-08
 IDIUse=1 WtCom= 1.00D+00 WtEn= 0.00D+00
 Coeff-Com:  0.115D-04-0.125D-03-0.314D-03-0.548D-03 0.158D-02 0.662D-02
 Coeff-Com: -0.434D-02-0.158D+00 0.116D+01
 Coeff:      0.115D-04-0.125D-03-0.314D-03-0.548D-03 0.158D-02 0.662D-02
 Coeff:     -0.434D-02-0.158D+00 0.116D+01
 Gap=     0.313 Goal=   None    Shift=    0.000
 RMSDP=3.90D-07 MaxDP=1.17D-05 DE=-8.77D-08 OVMax= 2.73D-05

 Cycle  10  Pass 1  IDiag  1:
 E= -489.943828850892     Delta-E=       -0.000000002358 Rises=F Damp=F
 DIIS: error= 1.63D-06 at cycle  10 NSaved=  10.
 NSaved=10 IEnMin=10 EnMin= -489.943828850892     IErMin=10 ErrMin= 1.63D-06
 ErrMax= 1.63D-06  0.00D+00 EMaxC= 1.00D-01 BMatC= 5.73D-11 BMatP= 9.81D-10
 IDIUse=1 WtCom= 1.00D+00 WtEn= 0.00D+00
 Coeff-Com:  0.390D-05 0.212D-04 0.559D-04-0.314D-03-0.185D-02 0.899D-03
 Coeff-Com:  0.223D-01-0.663D-01-0.132D+00 0.118D+01
 Coeff:      0.390D-05 0.212D-04 0.559D-04-0.314D-03-0.185D-02 0.899D-03
 Coeff:      0.223D-01-0.663D-01-0.132D+00 0.118D+01
 Gap=     0.313 Goal=   None    Shift=    0.000
 RMSDP=1.34D-07 MaxDP=4.51D-06 DE=-2.36D-09 OVMax= 7.15D-06

 Cycle  11  Pass 1  IDiag  1:
 E= -489.943828851033     Delta-E=       -0.000000000141 Rises=F Damp=F
 DIIS: error= 1.75D-07 at cycle  11 NSaved=  11.
 NSaved=11 IEnMin=11 EnMin= -489.943828851033     IErMin=11 ErrMin= 1.75D-07
 ErrMax= 1.75D-07  0.00D+00 EMaxC= 1.00D-01 BMatC= 1.63D-12 BMatP= 5.73D-11
 IDIUse=1 WtCom= 1.00D+00 WtEn= 0.00D+00
 Coeff-Com: -0.163D-05 0.637D-06 0.363D-05 0.104D-03 0.393D-03-0.267D-03
 Coeff-Com: -0.607D-02 0.241D-01-0.155D-01-0.278D+00 0.128D+01
 Coeff:     -0.163D-05 0.637D-06 0.363D-05 0.104D-03 0.393D-03-0.267D-03
 Coeff:     -0.607D-02 0.241D-01-0.155D-01-0.278D+00 0.128D+01
 Gap=     0.313 Goal=   None    Shift=    0.000
 RMSDP=3.41D-08 MaxDP=8.45D-07 DE=-1.41D-10 OVMax= 1.30D-06

 Cycle  12  Pass 1  IDiag  1:
 E= -489.943828851040     Delta-E=       -0.000000000006 Rises=F Damp=F
 DIIS: error= 2.68D-08 at cycle  12 NSaved=  12.
 NSaved=12 IEnMin=12 EnMin= -489.943828851040     IErMin=12 ErrMin= 2.68D-08
 ErrMax= 2.68D-08  0.00D+00 EMaxC= 1.00D-01 BMatC= 4.65D-14 BMatP= 1.63D-12
 IDIUse=1 WtCom= 1.00D+00 WtEn= 0.00D+00
 Coeff-Com:  0.170D-06-0.398D-06-0.162D-05-0.106D-04-0.226D-04 0.153D-04
 Coeff-Com:  0.484D-03-0.227D-02 0.415D-02 0.267D-01-0.259D+00 0.123D+01
 Coeff:      0.170D-06-0.398D-06-0.162D-05-0.106D-04-0.226D-04 0.153D-04
 Coeff:      0.484D-03-0.227D-02 0.415D-02 0.267D-01-0.259D+00 0.123D+01
 Gap=     0.313 Goal=   None    Shift=    0.000
 RMSDP=4.96D-09 MaxDP=9.73D-08 DE=-6.37D-12 OVMax= 2.20D-07

 SCF Done:  E(RHF) =  -489.943828851     A.U. after   12 cycles
            NFock= 12  Conv=0.50D-08     -V/T= 2.0005
 KE= 4.896793153710D+02 PE=-1.310424434999D+03 EE= 2.608039112076D+02
 Leave Link  502 at Wed May  4 19:03:37 2022, MaxMem=   754974720 cpu:              11.4 elap:               3.1
 (Enter /opt/cluster/programs/g16-c.01/g16/l801.exe)
 ExpMin= 3.51D-02 ExpMax= 3.74D+05 ExpMxC= 1.18D+03 IAcc=3 IRadAn=         5 AccDes= 0.00D+00
 HarFok:  IExCor=  205 AccDes= 0.00D+00 IRadAn=         5 IDoV=-2 UseB2=F ITyADJ=14
 ICtDFT= 12500011 ScaDFX=  1.000000  1.000000  1.000000  1.000000
 Largest valence mixing into a core orbital is  5.36D-04
 Largest core mixing into a valence orbital is  1.38D-04
 Range of M.O.s used for correlation:     8   142
 NBasis=   142 NAE=    15 NBE=    15 NFC=     7 NFV=     0
 NROrb=    135 NOA=     8 NOB=     8 NVA=   127 NVB=   127

 **** Warning!!: The largest alpha MO coefficient is  0.23578862D+02

 Leave Link  801 at Wed May  4 19:03:37 2022, MaxMem=   754974720 cpu:               0.4 elap:               0.1
 (Enter /opt/cluster/programs/g16-c.01/g16/l906.exe)
 Frozen-core derivative calculation, NFC=   7 NFV=   0.
 FulOut=F Deriv=T AODrv=T NAtomX=     3
   MMem=          74  MDisk=           8 MDiskD=           8
  W3Min=      359970 MinDsk=      723803 NBas6D=         169
 NBas2D=       14809    NTT=       14365    LW2=     3500000
    MDV=   754677685 MDiskM=       22268 NBas2p=       14795
 Fully direct method using O(ONN) memory.
 IMap=   1   2   3   4   5   6   7   8   9  10  11  12  13  14  15
 JobTyp=1 Pass  1:  I=   8 to  15 NPSUse=  4 ParTrn=T ParDer=T DoDerP=T.
 Spin components of T(2) and E(2):
     alpha-alpha T2 =       0.2906630437D-01 E2=     -0.6947639633D-01
     alpha-beta  T2 =       0.1520838981D+00 E2=     -0.3945882380D+00
     beta-beta   T2 =       0.2906630437D-01 E2=     -0.6947639633D-01
 The integrals were generated   1 times.
 ANorm=    0.1100098408D+01
 E2 =    -0.5335410307D+00 EUMP2 =    -0.49047736988173D+03
 Leave Link  906 at Wed May  4 19:03:46 2022, MaxMem=   754974720 cpu:              33.1 elap:               8.3
 (Enter /opt/cluster/programs/g16-c.01/g16/l1002.exe)
 Minotr:  Closed shell wavefunction.
          Computing MP2/KS-MP2 derivatives.
          Using Z-Vector for PSCF gradient.
          Skipping F1 and S1 gradient terms here.
          IDoAtm=111
          Frozen-core window.
          Direct CPHF calculation.
          Differentiating once with respect to electric field.
                with respect to dipole field.
          Differentiating once with respect to nuclear coordinates.
          Using symmetry in CPHF.
          Requested convergence is 1.0D-10 RMS, and 1.0D-09 maximum.
          NewPWx=F KeepS1=T KeepF1=T KeepIn=T MapXYZ=F SortEE=F KeepMc=T.
 Keep R1 ints in memory in symmetry-blocked form, NReq=77616884.
 FoFCou: FMM=F IPFlag=           0 FMFlag=           0 FMFlg1=           0
         NFxFlg=           0 DoJE=F BraDBF=F KetDBF=F FulRan=T
         wScrn=  0.000000 ICntrl=       600 IOpCl=  0 I1Cent=           0 NGrid=           0
         NMat0=    1 NMatS0=  10153 NMatT0=    0 NMatD0=    1 NMtDS0=    0 NMtDT0=    0
 Petite list used in FoFCou.
          MDV=     754974720 using IRadAn=       5.
          Solving linear equations separately, MaxMat=       0.
          There are     1 degrees of freedom in the 1st order CPHF.  IDoFFX=0 NUNeed=     1.
 LinEq1:  Iter=  0 NonCon=     1 RMS=5.00D-03 Max=7.94D-02 NDo=     1
 AX will form     1 AO Fock derivatives at one time.
 LinEq1:  Iter=  1 NonCon=     1 RMS=1.72D-03 Max=2.46D-02 NDo=     1
 LinEq1:  Iter=  2 NonCon=     1 RMS=6.02D-04 Max=6.73D-03 NDo=     1
 LinEq1:  Iter=  3 NonCon=     1 RMS=3.20D-04 Max=5.56D-03 NDo=     1
 LinEq1:  Iter=  4 NonCon=     1 RMS=1.28D-04 Max=1.77D-03 NDo=     1
 LinEq1:  Iter=  5 NonCon=     1 RMS=3.39D-05 Max=4.61D-04 NDo=     1
 LinEq1:  Iter=  6 NonCon=     1 RMS=7.24D-06 Max=5.94D-05 NDo=     1
 LinEq1:  Iter=  7 NonCon=     1 RMS=1.10D-06 Max=8.52D-06 NDo=     1
 LinEq1:  Iter=  8 NonCon=     1 RMS=1.99D-07 Max=2.19D-06 NDo=     1
 LinEq1:  Iter=  9 NonCon=     1 RMS=3.71D-08 Max=3.73D-07 NDo=     1
 LinEq1:  Iter= 10 NonCon=     1 RMS=6.88D-09 Max=8.05D-08 NDo=     1
 LinEq1:  Iter= 11 NonCon=     1 RMS=1.69D-09 Max=2.55D-08 NDo=     1
 LinEq1:  Iter= 12 NonCon=     1 RMS=4.97D-10 Max=6.77D-09 NDo=     1
 LinEq1:  Iter= 13 NonCon=     1 RMS=1.45D-10 Max=1.51D-09 NDo=     1
 LinEq1:  Iter= 14 NonCon=     0 RMS=2.06D-11 Max=1.71D-10 NDo=     1
 Linear equations converged to 1.000D-10 1.000D-09 after    14 iterations.
 End of Minotr F.D. properties file   721 does not exist.
 End of Minotr F.D. properties file   722 does not exist.
 End of Minotr F.D. properties file   788 does not exist.
 Leave Link 1002 at Wed May  4 19:03:50 2022, MaxMem=   754974720 cpu:              15.0 elap:               4.0
 (Enter /opt/cluster/programs/g16-c.01/g16/l601.exe)
 Copying SCF densities to generalized density rwf, IOpCl= 0 IROHF=0.

 **********************************************************************

            Population analysis using the SCF Density.

 **********************************************************************

 Orbital symmetries:
       Occupied  (A') (A') (A') (A') (A') (A") (A') (A') (A') (A')
                 (A') (A") (A') (A") (A')
       Virtual   (A') (A') (A') (A") (A') (A") (A') (A") (A') (A')
                 (A') (A') (A") (A') (A') (A") (A') (A') (A") (A')
                 (A") (A') (A') (A") (A') (A') (A") (A') (A") (A')
                 (A') (A') (A") (A') (A") (A') (A") (A') (A') (A")
                 (A') (A") (A') (A') (A") (A') (A') (A") (A') (A')
                 (A") (A') (A") (A') (A") (A') (A') (A') (A") (A')
                 (A") (A') (A') (A") (A') (A") (A') (A") (A') (A')
                 (A') (A") (A') (A") (A') (A') (A") (A') (A") (A')
                 (A') (A") (A') (A") (A') (A") (A') (A') (A") (A')
                 (A") (A') (A') (A") (A') (A') (A") (A') (A") (A')
                 (A') (A") (A') (A") (A') (A') (A") (A') (A') (A")
                 (A') (A') (A") (A') (A') (A") (A") (A') (A') (A")
                 (A') (A') (A") (A') (A') (A') (A')
 The electronic state is 1-A'.
 Alpha  occ. eigenvalues --  -91.73241 -15.35688 -11.10175  -8.73463  -6.41663
 Alpha  occ. eigenvalues --   -6.41416  -6.41416  -0.99526  -0.77611  -0.41360
 Alpha  occ. eigenvalues --   -0.33392  -0.29863  -0.29863  -0.14095  -0.14094
 Alpha virt. eigenvalues --    0.17175   0.19252   0.23720   0.23721   0.23978
 Alpha virt. eigenvalues --    0.23979   0.24975   0.30388   0.30389   0.31064
 Alpha virt. eigenvalues --    0.35824   0.40373   0.40499   0.40589   0.43949
 Alpha virt. eigenvalues --    0.43949   0.44884   0.54757   0.54757   0.54858
 Alpha virt. eigenvalues --    0.54860   0.56116   0.62561   0.63468   0.63470
 Alpha virt. eigenvalues --    0.74273   0.74424   0.74500   0.78126   0.78126
 Alpha virt. eigenvalues --    0.80871   0.83217   0.83222   0.87893   0.87895
 Alpha virt. eigenvalues --    0.89655   0.94260   0.94260   0.99552   1.04249
 Alpha virt. eigenvalues --    1.04251   1.05278   1.05278   1.11759   1.13713
 Alpha virt. eigenvalues --    1.13713   1.28844   1.28844   1.32424   1.34988
 Alpha virt. eigenvalues --    1.34988   1.35611   1.35611   1.37307   1.37382
 Alpha virt. eigenvalues --    1.37762   1.42585   1.55323   1.60881   1.60881
 Alpha virt. eigenvalues --    1.69866   1.69869   1.80846   1.87328   1.87371
 Alpha virt. eigenvalues --    1.87576   1.87576   2.00424   2.00424   2.05947
 Alpha virt. eigenvalues --    2.14203   2.14207   2.18196   2.28623   2.28623
 Alpha virt. eigenvalues --    2.40794   2.43255   2.43326   2.44324   2.44340
 Alpha virt. eigenvalues --    2.50156   2.50170   2.59532   2.59532   2.62036
 Alpha virt. eigenvalues --    2.62057   2.67866   2.74096   2.74096   2.87656
 Alpha virt. eigenvalues --    3.05005   3.05008   3.18765   3.38510   3.38512
 Alpha virt. eigenvalues --    3.61656   3.63621   3.63621   3.67265   3.67265
 Alpha virt. eigenvalues --    3.81892   3.86462   3.86462   3.88235   3.88242
 Alpha virt. eigenvalues --    4.19771   4.19795   4.30661   4.69385   4.76401
 Alpha virt. eigenvalues --    4.76422   4.94048   5.20145   5.20145   5.44734
 Alpha virt. eigenvalues --    5.44734   5.70456   5.70456   5.87250   5.87263
 Alpha virt. eigenvalues --    6.33540   6.39103   6.39207   6.43380   6.63633
 Alpha virt. eigenvalues --   11.71462  16.65851
          Condensed to atoms (all electrons):
               1          2          3
     1  N    6.799809   0.714990  -0.105760
     2  C    0.714990   5.035553   0.368572
     3  S   -0.105760   0.368572  16.209035
 Mulliken charges:
               1
     1  N   -0.409039
     2  C   -0.119114
     3  S   -0.471847
 Sum of Mulliken charges =  -1.00000
 Mulliken charges with hydrogens summed into heavy atoms:
               1
     1  N   -0.409039
     2  C   -0.119114
     3  S   -0.471847
 Electronic spatial extent (au):  <R**2>=            226.4787
 Charge=             -1.0000 electrons
 Dipole moment (field-independent basis, Debye):
    X=             -0.0321    Y=             -1.6014    Z=              0.0000  Tot=              1.6017
 Quadrupole moment (field-independent basis, Debye-Ang):
   XX=            -29.2660   YY=            -41.3215   ZZ=            -29.2627
   XY=             -0.2141   XZ=              0.0000   YZ=              0.0000
 Traceless Quadrupole moment (field-independent basis, Debye-Ang):
   XX=              4.0174   YY=             -8.0381   ZZ=              4.0207
   XY=             -0.2141   XZ=              0.0000   YZ=              0.0000
 Octapole moment (field-independent basis, Debye-Ang**2):
  XXX=              0.1105  YYY=            -21.8881  ZZZ=              0.0000  XYY=             -0.3031
  XXY=              1.9829  XXZ=             -0.0000  XZZ=              0.0369  YZZ=              1.9869
  YYZ=              0.0000  XYZ=             -0.0000
 Hexadecapole moment (field-independent basis, Debye-Ang**3):
 XXXX=            -45.8163 YYYY=           -328.6298 ZZZZ=            -45.7584 XXXY=             -1.9149
 XXXZ=              0.0000 YYYX=             -2.3301 YYYZ=              0.0000 ZZZX=              0.0000
 ZZZY=              0.0000 XXYY=            -59.7312 XXZZ=            -15.2624 YYZZ=            -59.7136
 XXYZ=              0.0000 YYXZ=              0.0000 ZZXY=             -0.6383
 N-N= 6.999737956897D+01 E-N=-1.310424435063D+03  KE= 4.896793153710D+02
 Symmetry A'   KE= 4.486833833608D+02
 Symmetry A"   KE= 4.099593201019D+01
 No NMR shielding tensors so no spin-rotation constants.
 Leave Link  601 at Wed May  4 19:03:51 2022, MaxMem=   754974720 cpu:               2.1 elap:               0.9
 (Enter /opt/cluster/programs/g16-c.01/g16/l701.exe)
 ... and contract with generalized density number  2.
 Compute integral first derivatives.
 Leave Link  701 at Wed May  4 19:03:51 2022, MaxMem=   754974720 cpu:               0.7 elap:               0.2
 (Enter /opt/cluster/programs/g16-c.01/g16/l702.exe)
 L702 exits ... SP integral derivatives will be done elsewhere.
 Leave Link  702 at Wed May  4 19:03:51 2022, MaxMem=   754974720 cpu:               0.1 elap:               0.0
 (Enter /opt/cluster/programs/g16-c.01/g16/l703.exe)
 Integral derivatives from FoFJK, PRISM(SPDF).
 Compute integral first derivatives, UseDBF=F ICtDFT=           0.
 Calling FoFJK, ICntrl=  10002127 FMM=F ISym2X=1 I1Cent= 0 IOpClX= 0 NMat=1 NMatS=1 NMatT=0.
 FoFJK:  IHMeth= 1 ICntrl=10002127 DoSepK=F KAlg= 0 I1Cent=           0 FoldK=F
 IRaf=         0 NMat=       1 IRICut=       1 DoRegI=T DoRafI=F ISym2E= 1 IDoP0=0 IntGTp=1.
 FoFCou: FMM=F IPFlag=           0 FMFlag=      100000 FMFlg1=         800
         NFxFlg=           0 DoJE=F BraDBF=F KetDBF=F FulRan=T
         wScrn=  0.000000 ICntrl=  10002127 IOpCl=  0 I1Cent=           0 NGrid=           0
         NMat0=    1 NMatS0=      1 NMatT0=    0 NMatD0=    1 NMtDS0=    0 NMtDT0=    0
 Petite list used in FoFCou.
 Leave Link  703 at Wed May  4 19:03:55 2022, MaxMem=   754974720 cpu:              14.5 elap:               3.6
 (Enter /opt/cluster/programs/g16-c.01/g16/l716.exe)
 Dipole        =-9.96033983D-03-5.97969365D-01 2.37534740D-28
 ***** Axes restored to original set *****
 -------------------------------------------------------------------
 Center     Atomic                   Forces (Hartrees/Bohr)
 Number     Number              X              Y              Z
 -------------------------------------------------------------------
      1        7          -0.000931097    0.000000000    0.000053051
      2        6           0.001603370   -0.000000000    0.000162891
      3       16          -0.000672274    0.000000000   -0.000215941
 -------------------------------------------------------------------
 Cartesian Forces:  Max     0.001603370 RMS     0.000663799
 Leave Link  716 at Wed May  4 19:03:55 2022, MaxMem=   754974720 cpu:               0.2 elap:               0.0
 (Enter /opt/cluster/programs/g16-c.01/g16/l103.exe)

 GradGradGradGradGradGradGradGradGradGradGradGradGradGradGradGradGradGrad
 Berny optimization.
 FormGI is forming the generalized inverse of G from B-inverse, IUseBI=4.
 Internal  Forces:  Max     0.001048985 RMS     0.000671621
 Search for a local minimum.
 Step number   1 out of a maximum of   20
 All quantities printed in internal units (Hartrees-Bohrs-Radians)
 RMS Force = .11687D-03 SwitMx=.10000D-02 MixMth= 2
 Mixed Optimization -- En-DIIS/RFO-DIIS
 Second derivative matrix not updated -- first step.
 The second derivative matrix:
                          R1        R2        A1        A2        A3
           R1           1.08759
           R2           0.00000   0.41030
           A1           0.00000   0.00000   0.25000
           A2           0.00000   0.00000   0.00000   0.25000
           A3           0.00000   0.00000   0.00000   0.00000   0.25000
 ITU=  0
     Eigenvalues ---    0.41030   1.087591000.000001000.000001000.00000
 RFO step:  Lambda=-1.28887202D-07 EMin= 4.10299174D-01
 Linear search not attempted -- first point.
 Iteration  1 RMS(Cart)=  0.00021206 RMS(Int)=  0.00000000
 Iteration  2 RMS(Cart)=  0.00000000 RMS(Int)=  0.00000000
 Iteration  1 RMS(Cart)=  0.00000000 RMS(Int)=  0.00000000
 ITry= 1 IFail=0 DXMaxC= 3.86D-04 DCOld= 1.00D+10 DXMaxT= 3.00D-01 DXLimC= 3.00D+00 Rises=F
 ClnCor:  largest displacement from symmetrization is 1.33D-15 for atom     3.
 Variable       Old X    -DE/DX   Delta X   Delta X   Delta X     New X
                                 (Linear)    (Quad)   (Total)
    R1        2.25323  -0.00005   0.00000  -0.00005  -0.00005   2.25318
    R2        3.13877  -0.00023   0.00000  -0.00055  -0.00055   3.13822
    A1        3.12414   0.00105   0.00000  -0.00000  -0.00000   3.12414
    A2        3.14159   0.00000   0.00000  -0.00000   0.00000   3.14159
    A3        3.12414   0.00105   0.00000   0.00000  -0.00000   3.12414
         Item               Value     Threshold  Converged?
 Maximum Force            0.000228     0.000450     YES
 RMS     Force            0.000117     0.000300     YES
 Maximum Displacement     0.000386     0.001800     YES
 RMS     Displacement     0.000212     0.001200     YES
 Predicted change in Energy=-6.444360D-08
 Optimization completed.
    -- Stationary point found.
                           ----------------------------
                           !   Optimized Parameters   !
                           ! (Angstroms and Degrees)  !
 --------------------------                            --------------------------
 ! Name  Definition              Value          Derivative Info.                !
 --------------------------------------------------------------------------------
 ! R1    R(1,2)                  1.1924         -DE/DX =   -0.0001              !
 ! R2    R(2,3)                  1.661          -DE/DX =   -0.0002              !
 ! A1    L(1,2,3,-2,-1)        179.0            -DE/DX =    0.001               !
 ! A2    L(1,2,3,-1,-2)        180.0            -DE/DX =    0.0                 !
 ! A3    A(1,2,3)              179.0            -DE/DX =    0.001               !
 --------------------------------------------------------------------------------
 Lowest energy point so far.  Saving SCF results.
 Largest change from initial coordinates is atom    3       0.000 Angstoms.
 GradGradGradGradGradGradGradGradGradGradGradGradGradGradGradGradGradGrad

 Leave Link  103 at Wed May  4 19:03:55 2022, MaxMem=   754974720 cpu:               0.5 elap:               0.2
 (Enter /opt/cluster/programs/g16-c.01/g16/l202.exe)
                          Input orientation:                          
 ---------------------------------------------------------------------
 Center     Atomic      Atomic             Coordinates (Angstroms)
 Number     Number       Type             X           Y           Z
 ---------------------------------------------------------------------
      1          7           0        0.000000   -0.000000   -1.820943
      2          6           0       -0.000000    0.000000   -0.628586
      3         16           0        0.028988   -0.000000    1.032129
 ---------------------------------------------------------------------
                    Distance matrix (angstroms):
                    1          2          3
     1  N    0.000000
     2  C    1.192357   0.000000
     3  S    2.853219   1.660968   0.000000
 Stoichiometry    CNS(1-)
 Framework group  CS[SG(CNS)]
 Deg. of freedom     3
 Full point group                 CS      NOp   2
 RotChk:  IX=0 Diff= 1.73D-11
 Largest Abelian subgroup         CS      NOp   2
 Largest concise Abelian subgroup C1      NOp   1
                         Standard orientation:                         
 ---------------------------------------------------------------------
 Center     Atomic      Atomic             Coordinates (Angstroms)
 Number     Number       Type             X           Y           Z
 ---------------------------------------------------------------------
      1          7           0        0.030334    1.820621    0.000000
      2          6           0        0.000000    0.628650    0.000000
      3         16           0       -0.013271   -1.032265   -0.000000
 ---------------------------------------------------------------------
 Rotational constants (GHZ):      389134.2512013           5.9286471           5.9285568
 Leave Link  202 at Wed May  4 19:03:55 2022, MaxMem=   754974720 cpu:               0.1 elap:               0.0
 (Enter /opt/cluster/programs/g16-c.01/g16/l9999.exe)
 Unable to Open any file for archive entry.
 1\1\GINC-NODE41\FOpt\RMP2-FC\Aug-CC-pVTZ\C1N1S1(1-)\TOEPFER\04-May-202
 2\0\\#P MP2/aug-cc-pVTZ scf(maxcycle=200) opt geom(AddGIC)\\Gaussian i
 nput\\-1,1\N,0.,0.,-1.820943\C,0.,0.,-0.628586\S,0.0289878886,0.,1.032
 1290265\\Version=ES64L-G16RevC.01\State=1-A'\HF=-489.9438289\MP2=-490.
 4773699\RMSD=4.962e-09\RMSF=6.638e-04\Dipole=0.0052557,0.,0.5980292\PG
 =CS [SG(C1N1S1)]\\@
 The archive entry for this job was punched.


 Democracy is the recurrent suspicion that more than half of the people
 are right more than half of the time.
 -- E. B. White
 Job cpu time:       0 days  0 hours  1 minutes 23.8 seconds.
 Elapsed time:       0 days  0 hours  0 minutes 22.0 seconds.
 File lengths (MBytes):  RWF=     11 Int=      0 D2E=      0 Chk=      3 Scr=      1
 Normal termination of Gaussian 16 at Wed May  4 19:03:55 2022.
