 Entering Gaussian System, Link 0=/opt/cluster/programs/g16-c.01/g16/g16
 Input=/scratch/toepfer/jobs/tmp.5739911/gaussian_3_scn.com
 Output=/scratch/toepfer/jobs/tmp.5739911/gaussian_3_scn.out
 Initial command:
 /opt/cluster/programs/g16-c.01/g16/l1.exe "/scratch/toepfer/jobs/tmp.5739911/Gau-144564.inp" -scrdir="/scratch/toepfer/jobs/tmp.5739911/"
 Entering Link 1 = /opt/cluster/programs/g16-c.01/g16/l1.exe PID=    144568.
  
 Copyright (c) 1988-2019, Gaussian, Inc.  All Rights Reserved.
  
 This is part of the Gaussian(R) 16 program.  It is based on
 the Gaussian(R) 09 system (copyright 2009, Gaussian, Inc.),
 the Gaussian(R) 03 system (copyright 2003, Gaussian, Inc.),
 the Gaussian(R) 98 system (copyright 1998, Gaussian, Inc.),
 the Gaussian(R) 94 system (copyright 1995, Gaussian, Inc.),
 the Gaussian 92(TM) system (copyright 1992, Gaussian, Inc.),
 the Gaussian 90(TM) system (copyright 1990, Gaussian, Inc.),
 the Gaussian 88(TM) system (copyright 1988, Gaussian, Inc.),
 the Gaussian 86(TM) system (copyright 1986, Carnegie Mellon
 University), and the Gaussian 82(TM) system (copyright 1983,
 Carnegie Mellon University). Gaussian is a federally registered
 trademark of Gaussian, Inc.
  
 This software contains proprietary and confidential information,
 including trade secrets, belonging to Gaussian, Inc.
  
 This software is provided under written license and may be
 used, copied, transmitted, or stored only in accord with that
 written license.
  
 The following legend is applicable only to US Government
 contracts under FAR:
  
                    RESTRICTED RIGHTS LEGEND
  
 Use, reproduction and disclosure by the US Government is
 subject to restrictions as set forth in subparagraphs (a)
 and (c) of the Commercial Computer Software - Restricted
 Rights clause in FAR 52.227-19.
  
 Gaussian, Inc.
 340 Quinnipiac St., Bldg. 40, Wallingford CT 06492
  
  
 ---------------------------------------------------------------
 Warning -- This program may not be used in any manner that
 competes with the business of Gaussian, Inc. or will provide
 assistance to any competitor of Gaussian, Inc.  The licensee
 of this program is prohibited from giving any competitor of
 Gaussian, Inc. access to this program.  By using this program,
 the user acknowledges that Gaussian, Inc. is engaged in the
 business of creating and licensing software in the field of
 computational chemistry and represents and warrants to the
 licensee that it is not a competitor of Gaussian, Inc. and that
 it will not use this program in any manner prohibited above.
 ---------------------------------------------------------------
  

 Cite this work as:
 Gaussian 16, Revision C.01,
 M. J. Frisch, G. W. Trucks, H. B. Schlegel, G. E. Scuseria, 
 M. A. Robb, J. R. Cheeseman, G. Scalmani, V. Barone, 
 G. A. Petersson, H. Nakatsuji, X. Li, M. Caricato, A. V. Marenich, 
 J. Bloino, B. G. Janesko, R. Gomperts, B. Mennucci, H. P. Hratchian, 
 J. V. Ortiz, A. F. Izmaylov, J. L. Sonnenberg, D. Williams-Young, 
 F. Ding, F. Lipparini, F. Egidi, J. Goings, B. Peng, A. Petrone, 
 T. Henderson, D. Ranasinghe, V. G. Zakrzewski, J. Gao, N. Rega, 
 G. Zheng, W. Liang, M. Hada, M. Ehara, K. Toyota, R. Fukuda, 
 J. Hasegawa, M. Ishida, T. Nakajima, Y. Honda, O. Kitao, H. Nakai, 
 T. Vreven, K. Throssell, J. A. Montgomery, Jr., J. E. Peralta, 
 F. Ogliaro, M. J. Bearpark, J. J. Heyd, E. N. Brothers, K. N. Kudin, 
 V. N. Staroverov, T. A. Keith, R. Kobayashi, J. Normand, 
 K. Raghavachari, A. P. Rendell, J. C. Burant, S. S. Iyengar, 
 J. Tomasi, M. Cossi, J. M. Millam, M. Klene, C. Adamo, R. Cammi, 
 J. W. Ochterski, R. L. Martin, K. Morokuma, O. Farkas, 
 J. B. Foresman, and D. J. Fox, Gaussian, Inc., Wallingford CT, 2019.
 
 ******************************************
 Gaussian 16:  ES64L-G16RevC.01  3-Jul-2019
                 4-May-2022 
 ******************************************
 %nproc=4
 Will use up to    4 processors via shared memory.
 %mem=5760MB
 %chk=gaussian_3_scn.chk
 -----------------------------------------------------
 #P MP2/aug-cc-pVTZ scf(maxcycle=200) opt geom(AddGIC)
 -----------------------------------------------------
 1/18=20,19=15,38=1,145=903/1,3;
 2/9=110,12=2,17=6,18=5,40=1/2;
 3/5=16,6=1,7=10,11=9,25=1,30=1,71=1/1,2,3;
 4//1;
 5/5=2,7=200,38=5/2;
 8/6=4,10=1/1;
 9/15=2,16=-3/6;
 10/5=1/2;
 6/7=2,8=2,9=2,10=2/1;
 7/12=2/1,2,3,16;
 1/18=20,19=15,145=903/3(2);
 2/9=110/2;
 99//99;
 2/9=110/2;
 3/5=16,6=1,7=10,11=9,25=1,30=1,71=1/1,2,3;
 4/5=5,16=3,69=1/1;
 5/5=2,7=200,38=5/2;
 8/6=4,10=1/1;
 9/15=2,16=-3/6;
 10/5=1/2;
 7/12=2/1,2,3,16;
 1/18=20,19=15,145=903/3(-8);
 2/9=110/2;
 6/7=2,8=2,9=2,10=2/1;
 99/9=10/99;
 Leave Link    1 at Wed May  4 19:03:36 2022, MaxMem=   754974720 cpu:               0.2 elap:               0.1
 (Enter /opt/cluster/programs/g16-c.01/g16/l101.exe)
 --------------
 Gaussian input
 --------------
 Symbolic Z-matrix:
 Charge = -1 Multiplicity = 1
 N                     0.        0.       -1.82094 
 C                     0.        0.       -0.62859 
 S                     0.37364   0.        0.98981 
 
 Initializing the GIC definitions file.
 Number of initial coordinates =     4
 Number of input entries/lines =     1
 Number of additional coordinates =     1
 Number of removed coordinates =     0
 Number of frozen coordinates =     1
 Number of final active and frozen coordinates =     5
 ITRead=  0  0  0
 MicOpt= -1 -1 -1
 NAtoms=      3 NQM=        3 NQMF=       0 NMMI=      0 NMMIF=      0
                NMic=       0 NMicF=      0.
                    Isotopes and Nuclear Properties:
 (Nuclear quadrupole moments (NQMom) in fm**2, nuclear magnetic moments (NMagM)
  in nuclear magnetons)

  Atom         1           2           3
 IAtWgt=          14          12          32
 AtmWgt=  14.0030740  12.0000000  31.9720718
 NucSpn=           2           0           0
 AtZEff=  -0.0000000  -0.0000000  -0.0000000
 NQMom=    2.0440000   0.0000000   0.0000000
 NMagM=    0.4037610   0.0000000   0.0000000
 AtZNuc=   7.0000000   6.0000000  16.0000000
 Leave Link  101 at Wed May  4 19:03:37 2022, MaxMem=   754974720 cpu:               2.3 elap:               0.8
 (Enter /opt/cluster/programs/g16-c.01/g16/l103.exe)

 GradGradGradGradGradGradGradGradGradGradGradGradGradGradGradGradGradGrad
 Berny optimization.
 Initialization pass.
                           ----------------------------
                           !    Initial Parameters    !
                           ! (Angstroms and Degrees)  !
 --------------------------                            --------------------------
 ! Name  Definition              Value          Derivative Info.                !
 --------------------------------------------------------------------------------
 ! R1    R(1,2)                  1.1924         estimate D2E/DX2                !
 ! R2    R(2,3)                  1.661          estimate D2E/DX2                !
 ! A1    L(1,2,3,-2,-1)        167.0            estimate D2E/DX2                !
 ! A2    L(1,2,3,-1,-2)        180.0            estimate D2E/DX2                !
 ! A3    A(1,2,3)              167.0            Frozen                          !
 --------------------------------------------------------------------------------
 Trust Radius=3.00D-01 FncErr=1.00D-07 GrdErr=1.00D-07 EigMax=2.50D+02 EigMin=1.00D-04
 Number of steps in this run=     20 maximum allowed number of steps=    100.
 GradGradGradGradGradGradGradGradGradGradGradGradGradGradGradGradGradGrad

 Leave Link  103 at Wed May  4 19:03:37 2022, MaxMem=   754974720 cpu:               0.1 elap:               0.0
 (Enter /opt/cluster/programs/g16-c.01/g16/l202.exe)
                          Input orientation:                          
 ---------------------------------------------------------------------
 Center     Atomic      Atomic             Coordinates (Angstroms)
 Number     Number       Type             X           Y           Z
 ---------------------------------------------------------------------
      1          7           0        0.000000    0.000000   -1.820943
      2          6           0        0.000000    0.000000   -0.628586
      3         16           0        0.373637    0.000000    0.989811
 ---------------------------------------------------------------------
                    Distance matrix (angstroms):
                    1          2          3
     1  N    0.000000
     2  C    1.192357   0.000000
     3  S    2.835480   1.660968   0.000000
 Stoichiometry    CNS(1-)
 Framework group  CS[SG(CNS)]
 Deg. of freedom     3
 Full point group                 CS      NOp   2
 Largest Abelian subgroup         CS      NOp   2
 Largest concise Abelian subgroup C1      NOp   1
                         Standard orientation:                         
 ---------------------------------------------------------------------
 Center     Atomic      Atomic             Coordinates (Angstroms)
 Number     Number       Type             X           Y           Z
 ---------------------------------------------------------------------
      1          7           0        0.384510    1.767907    0.000000
      2          6           0        0.000000    0.639249   -0.000000
      3         16           0       -0.168223   -1.013178   -0.000000
 ---------------------------------------------------------------------
 Rotational constants (GHZ):        2314.8779524           5.9987606           5.9832557
 Leave Link  202 at Wed May  4 19:03:37 2022, MaxMem=   754974720 cpu:               0.1 elap:               0.0
 (Enter /opt/cluster/programs/g16-c.01/g16/l301.exe)
 Standard basis: Aug-CC-pVTZ (5D, 7F)
 Ernie: Thresh=  0.10000D-02 Tol=  0.10000D-05 Strict=F.
 Ernie:  19 primitive shells out of 124 were deleted.
 There are   114 symmetry adapted cartesian basis functions of A'  symmetry.
 There are    55 symmetry adapted cartesian basis functions of A"  symmetry.
 There are    93 symmetry adapted basis functions of A'  symmetry.
 There are    49 symmetry adapted basis functions of A"  symmetry.
   142 basis functions,   258 primitive gaussians,   169 cartesian basis functions
    15 alpha electrons       15 beta electrons
       nuclear repulsion energy        70.1273369977 Hartrees.
 IExCor=    0 DFT=F Ex=HF Corr=None ExCW=0 ScaHFX=  1.000000
 ScaDFX=  1.000000  1.000000  1.000000  1.000000 ScalE2=  1.000000  1.000000
 IRadAn=      5 IRanWt=     -1 IRanGd=            0 ICorTp=0 IEmpDi=  4
 NAtoms=    3 NActive=    3 NUniq=    3 SFac= 1.00D+00 NAtFMM=   60 NAOKFM=F Big=F
 Integral buffers will be    131072 words long.
 Raffenetti 1 integral format.
 Two-electron integral symmetry is turned on.
 Leave Link  301 at Wed May  4 19:03:37 2022, MaxMem=   754974720 cpu:               0.2 elap:               0.1
 (Enter /opt/cluster/programs/g16-c.01/g16/l302.exe)
 NPDir=0 NMtPBC=     1 NCelOv=     1 NCel=       1 NClECP=     1 NCelD=      1
         NCelK=      1 NCelE2=     1 NClLst=     1 CellRange=     0.0.
 One-electron integrals computed using PRISM.
 One-electron integral symmetry used in STVInt
 NBasis=   142 RedAO= T EigKep=  1.03D-04  NBF=    93    49
 NBsUse=   142 1.00D-06 EigRej= -1.00D+00 NBFU=    93    49
 Leave Link  302 at Wed May  4 19:03:37 2022, MaxMem=   754974720 cpu:               0.6 elap:               0.2
 (Enter /opt/cluster/programs/g16-c.01/g16/l303.exe)
 DipDrv:  MaxL=1.
 Leave Link  303 at Wed May  4 19:03:37 2022, MaxMem=   754974720 cpu:               0.2 elap:               0.0
 (Enter /opt/cluster/programs/g16-c.01/g16/l401.exe)
 ExpMin= 3.51D-02 ExpMax= 3.74D+05 ExpMxC= 1.18D+03 IAcc=3 IRadAn=         5 AccDes= 0.00D+00
 Harris functional with IExCor=  205 and IRadAn=       5 diagonalized for initial guess.
 HarFok:  IExCor=  205 AccDes= 0.00D+00 IRadAn=         5 IDoV= 1 UseB2=F ITyADJ=14
 ICtDFT=  3500011 ScaDFX=  1.000000  1.000000  1.000000  1.000000
 FoFCou: FMM=F IPFlag=           0 FMFlag=      100000 FMFlg1=           0
         NFxFlg=           0 DoJE=T BraDBF=F KetDBF=T FulRan=T
         wScrn=  0.000000 ICntrl=       500 IOpCl=  0 I1Cent=   200000004 NGrid=           0
         NMat0=    1 NMatS0=      1 NMatT0=    0 NMatD0=    1 NMtDS0=    0 NMtDT0=    0
 Petite list used in FoFCou.
 Harris En= -489.764140346371    
 JPrj=0 DoOrth=F DoCkMO=F.
 Initial guess orbital symmetries:
       Occupied  (A') (A') (A') (A') (A') (A") (A') (A') (A') (A')
                 (A') (A") (A') (A") (A')
       Virtual   (A') (A") (A') (A') (A') (A") (A') (A') (A") (A')
                 (A') (A") (A') (A') (A") (A') (A') (A') (A") (A')
                 (A") (A') (A') (A") (A') (A') (A") (A') (A') (A")
                 (A') (A') (A") (A') (A") (A") (A') (A') (A') (A")
                 (A') (A') (A") (A') (A") (A') (A') (A") (A') (A')
                 (A") (A') (A") (A') (A") (A') (A') (A') (A") (A')
                 (A") (A') (A') (A") (A') (A") (A') (A") (A') (A')
                 (A') (A") (A') (A") (A') (A') (A") (A') (A") (A')
                 (A") (A') (A') (A") (A') (A") (A') (A") (A') (A')
                 (A') (A") (A') (A") (A') (A') (A') (A") (A") (A')
                 (A') (A") (A') (A') (A") (A') (A") (A') (A') (A")
                 (A') (A') (A") (A') (A') (A") (A") (A') (A') (A")
                 (A') (A') (A") (A') (A') (A') (A')
 The electronic state of the initial guess is 1-A'.
 Leave Link  401 at Wed May  4 19:03:38 2022, MaxMem=   754974720 cpu:               2.0 elap:               0.7
 (Enter /opt/cluster/programs/g16-c.01/g16/l502.exe)
 Keep R1 ints in memory in symmetry-blocked form, NReq=77616006.
 FoFCou: FMM=F IPFlag=           0 FMFlag=           0 FMFlg1=           0
         NFxFlg=           0 DoJE=F BraDBF=F KetDBF=F FulRan=T
         wScrn=  0.000000 ICntrl=       600 IOpCl=  0 I1Cent=           0 NGrid=           0
         NMat0=    1 NMatS0=  10153 NMatT0=    0 NMatD0=    1 NMtDS0=    0 NMtDT0=    0
 Petite list used in FoFCou.
 Closed shell SCF:
 Using DIIS extrapolation, IDIIS=  1040.
 NGot=   754974720 LenX=   728846748 LenY=   728817746
 Requested convergence on RMS density matrix=1.00D-08 within 200 cycles.
 Requested convergence on MAX density matrix=1.00D-06.
 Requested convergence on             energy=1.00D-06.
 No special actions if energy rises.

 Cycle   1  Pass 1  IDiag  1:
 E= -489.751126106030    
 DIIS: error= 4.46D-02 at cycle   1 NSaved=   1.
 NSaved= 1 IEnMin= 1 EnMin= -489.751126106030     IErMin= 1 ErrMin= 4.46D-02
 ErrMax= 4.46D-02  0.00D+00 EMaxC= 1.00D-01 BMatC= 3.50D-01 BMatP= 3.50D-01
 IDIUse=3 WtCom= 5.54D-01 WtEn= 4.46D-01
 Coeff-Com:  0.100D+01
 Coeff-En:   0.100D+01
 Coeff:      0.100D+01
 Gap=     0.575 Goal=   None    Shift=    0.000
 GapD=    0.575 DampG=2.000 DampE=0.500 DampFc=1.0000 IDamp=-1.
 RMSDP=3.37D-03 MaxDP=6.89D-02              OVMax= 2.14D-01

 Cycle   2  Pass 1  IDiag  1:
 E= -489.866521969468     Delta-E=       -0.115395863438 Rises=F Damp=F
 DIIS: error= 2.97D-02 at cycle   2 NSaved=   2.
 NSaved= 2 IEnMin= 2 EnMin= -489.866521969468     IErMin= 2 ErrMin= 2.97D-02
 ErrMax= 2.97D-02  0.00D+00 EMaxC= 1.00D-01 BMatC= 7.59D-02 BMatP= 3.50D-01
 IDIUse=3 WtCom= 7.03D-01 WtEn= 2.97D-01
 Coeff-Com:  0.259D+00 0.741D+00
 Coeff-En:   0.119D+00 0.881D+00
 Coeff:      0.217D+00 0.783D+00
 Gap=     0.383 Goal=   None    Shift=    0.000
 RMSDP=1.48D-03 MaxDP=4.23D-02 DE=-1.15D-01 OVMax= 9.40D-02

 Cycle   3  Pass 1  IDiag  1:
 E= -489.924355391141     Delta-E=       -0.057833421673 Rises=F Damp=F
 DIIS: error= 1.56D-02 at cycle   3 NSaved=   3.
 NSaved= 3 IEnMin= 3 EnMin= -489.924355391141     IErMin= 3 ErrMin= 1.56D-02
 ErrMax= 1.56D-02  0.00D+00 EMaxC= 1.00D-01 BMatC= 1.66D-02 BMatP= 7.59D-02
 IDIUse=3 WtCom= 8.44D-01 WtEn= 1.56D-01
 Coeff-Com: -0.167D-01 0.300D+00 0.717D+00
 Coeff-En:   0.000D+00 0.499D-01 0.950D+00
 Coeff:     -0.141D-01 0.261D+00 0.753D+00
 Gap=     0.320 Goal=   None    Shift=    0.000
 RMSDP=6.02D-04 MaxDP=1.44D-02 DE=-5.78D-02 OVMax= 5.08D-02

 Cycle   4  Pass 1  IDiag  1:
 E= -489.938802111550     Delta-E=       -0.014446720409 Rises=F Damp=F
 DIIS: error= 4.71D-03 at cycle   4 NSaved=   4.
 NSaved= 4 IEnMin= 4 EnMin= -489.938802111550     IErMin= 4 ErrMin= 4.71D-03
 ErrMax= 4.71D-03  0.00D+00 EMaxC= 1.00D-01 BMatC= 1.19D-03 BMatP= 1.66D-02
 IDIUse=3 WtCom= 9.53D-01 WtEn= 4.71D-02
 Coeff-Com: -0.142D-01 0.551D-01 0.284D+00 0.675D+00
 Coeff-En:   0.000D+00 0.000D+00 0.000D+00 0.100D+01
 Coeff:     -0.135D-01 0.525D-01 0.270D+00 0.691D+00
 Gap=     0.311 Goal=   None    Shift=    0.000
 RMSDP=1.45D-04 MaxDP=3.03D-03 DE=-1.44D-02 OVMax= 1.28D-02

 Cycle   5  Pass 1  IDiag  1:
 E= -489.939959809060     Delta-E=       -0.001157697510 Rises=F Damp=F
 DIIS: error= 1.03D-03 at cycle   5 NSaved=   5.
 NSaved= 5 IEnMin= 5 EnMin= -489.939959809060     IErMin= 5 ErrMin= 1.03D-03
 ErrMax= 1.03D-03  0.00D+00 EMaxC= 1.00D-01 BMatC= 6.47D-05 BMatP= 1.19D-03
 IDIUse=3 WtCom= 9.90D-01 WtEn= 1.03D-02
 Coeff-Com:  0.227D-02-0.395D-01-0.902D-01 0.557D-01 0.107D+01
 Coeff-En:   0.000D+00 0.000D+00 0.000D+00 0.000D+00 0.100D+01
 Coeff:      0.225D-02-0.390D-01-0.893D-01 0.551D-01 0.107D+01
 Gap=     0.311 Goal=   None    Shift=    0.000
 RMSDP=7.94D-05 MaxDP=1.79D-03 DE=-1.16D-03 OVMax= 4.85D-03

 Cycle   6  Pass 1  IDiag  1:
 E= -489.940103148057     Delta-E=       -0.000143338998 Rises=F Damp=F
 DIIS: error= 2.56D-04 at cycle   6 NSaved=   6.
 NSaved= 6 IEnMin= 6 EnMin= -489.940103148057     IErMin= 6 ErrMin= 2.56D-04
 ErrMax= 2.56D-04  0.00D+00 EMaxC= 1.00D-01 BMatC= 5.25D-06 BMatP= 6.47D-05
 IDIUse=3 WtCom= 9.97D-01 WtEn= 2.56D-03
 Coeff-Com:  0.100D-02-0.992D-02-0.308D-01-0.566D-01 0.905D-01 0.101D+01
 Coeff-En:   0.000D+00 0.000D+00 0.000D+00 0.000D+00 0.000D+00 0.100D+01
 Coeff:      0.998D-03-0.989D-02-0.307D-01-0.564D-01 0.903D-01 0.101D+01
 Gap=     0.312 Goal=   None    Shift=    0.000
 RMSDP=2.69D-05 MaxDP=5.11D-04 DE=-1.43D-04 OVMax= 1.98D-03

 Cycle   7  Pass 1  IDiag  1:
 E= -489.940119031126     Delta-E=       -0.000015883068 Rises=F Damp=F
 DIIS: error= 1.41D-04 at cycle   7 NSaved=   7.
 NSaved= 7 IEnMin= 7 EnMin= -489.940119031126     IErMin= 7 ErrMin= 1.41D-04
 ErrMax= 1.41D-04  0.00D+00 EMaxC= 1.00D-01 BMatC= 6.60D-07 BMatP= 5.25D-06
 IDIUse=3 WtCom= 9.99D-01 WtEn= 1.41D-03
 Coeff-Com: -0.128D-03 0.432D-02 0.113D-01-0.111D-01-0.116D+00-0.114D+00
 Coeff-Com:  0.123D+01
 Coeff-En:   0.000D+00 0.000D+00 0.000D+00 0.000D+00 0.000D+00 0.000D+00
 Coeff-En:   0.100D+01
 Coeff:     -0.128D-03 0.432D-02 0.113D-01-0.111D-01-0.116D+00-0.113D+00
 Coeff:      0.123D+01
 Gap=     0.312 Goal=   None    Shift=    0.000
 RMSDP=1.21D-05 MaxDP=2.77D-04 DE=-1.59D-05 OVMax= 8.60D-04

 Cycle   8  Pass 1  IDiag  1:
 E= -489.940121307615     Delta-E=       -0.000002276489 Rises=F Damp=F
 DIIS: error= 2.89D-05 at cycle   8 NSaved=   8.
 NSaved= 8 IEnMin= 8 EnMin= -489.940121307615     IErMin= 8 ErrMin= 2.89D-05
 ErrMax= 2.89D-05  0.00D+00 EMaxC= 1.00D-01 BMatC= 4.00D-08 BMatP= 6.60D-07
 IDIUse=1 WtCom= 1.00D+00 WtEn= 0.00D+00
 Coeff-Com: -0.795D-04-0.212D-03-0.666D-04 0.537D-02 0.256D-01-0.276D-01
 Coeff-Com: -0.351D+00 0.135D+01
 Coeff:     -0.795D-04-0.212D-03-0.666D-04 0.537D-02 0.256D-01-0.276D-01
 Coeff:     -0.351D+00 0.135D+01
 Gap=     0.312 Goal=   None    Shift=    0.000
 RMSDP=3.68D-06 MaxDP=1.16D-04 DE=-2.28D-06 OVMax= 2.51D-04

 Cycle   9  Pass 1  IDiag  1:
 E= -489.940121458821     Delta-E=       -0.000000151207 Rises=F Damp=F
 DIIS: error= 1.03D-05 at cycle   9 NSaved=   9.
 NSaved= 9 IEnMin= 9 EnMin= -489.940121458821     IErMin= 9 ErrMin= 1.03D-05
 ErrMax= 1.03D-05  0.00D+00 EMaxC= 1.00D-01 BMatC= 3.45D-09 BMatP= 4.00D-08
 IDIUse=1 WtCom= 1.00D+00 WtEn= 0.00D+00
 Coeff-Com:  0.198D-04-0.175D-03-0.485D-03-0.858D-03 0.122D-02 0.108D-01
 Coeff-Com:  0.732D-02-0.271D+00 0.125D+01
 Coeff:      0.198D-04-0.175D-03-0.485D-03-0.858D-03 0.122D-02 0.108D-01
 Coeff:      0.732D-02-0.271D+00 0.125D+01
 Gap=     0.312 Goal=   None    Shift=    0.000
 RMSDP=1.14D-06 MaxDP=3.93D-05 DE=-1.51D-07 OVMax= 8.41D-05

 Cycle  10  Pass 1  IDiag  1:
 E= -489.940121476652     Delta-E=       -0.000000017831 Rises=F Damp=F
 DIIS: error= 6.04D-06 at cycle  10 NSaved=  10.
 NSaved=10 IEnMin=10 EnMin= -489.940121476652     IErMin=10 ErrMin= 6.04D-06
 ErrMax= 6.04D-06  0.00D+00 EMaxC= 1.00D-01 BMatC= 8.98D-10 BMatP= 3.45D-09
 IDIUse=1 WtCom= 1.00D+00 WtEn= 0.00D+00
 Coeff-Com:  0.804D-05 0.973D-04 0.221D-03-0.642D-03-0.540D-02 0.323D-03
 Coeff-Com:  0.619D-01-0.134D+00-0.514D+00 0.159D+01
 Coeff:      0.804D-05 0.973D-04 0.221D-03-0.642D-03-0.540D-02 0.323D-03
 Coeff:      0.619D-01-0.134D+00-0.514D+00 0.159D+01
 Gap=     0.312 Goal=   None    Shift=    0.000
 RMSDP=7.27D-07 MaxDP=2.17D-05 DE=-1.78D-08 OVMax= 5.62D-05

 Cycle  11  Pass 1  IDiag  1:
 E= -489.940121483247     Delta-E=       -0.000000006596 Rises=F Damp=F
 DIIS: error= 2.37D-06 at cycle  11 NSaved=  11.
 NSaved=11 IEnMin=11 EnMin= -489.940121483247     IErMin=11 ErrMin= 2.37D-06
 ErrMax= 2.37D-06  0.00D+00 EMaxC= 1.00D-01 BMatC= 1.66D-10 BMatP= 8.98D-10
 IDIUse=1 WtCom= 1.00D+00 WtEn= 0.00D+00
 Coeff-Com: -0.921D-05 0.872D-05 0.285D-04 0.590D-03 0.200D-02-0.258D-02
 Coeff-Com: -0.300D-01 0.132D+00-0.107D+00-0.611D+00 0.162D+01
 Coeff:     -0.921D-05 0.872D-05 0.285D-04 0.590D-03 0.200D-02-0.258D-02
 Coeff:     -0.300D-01 0.132D+00-0.107D+00-0.611D+00 0.162D+01
 Gap=     0.312 Goal=   None    Shift=    0.000
 RMSDP=3.09D-07 MaxDP=7.11D-06 DE=-6.60D-09 OVMax= 2.73D-05

 Cycle  12  Pass 1  IDiag  1:
 E= -489.940121484513     Delta-E=       -0.000000001266 Rises=F Damp=F
 DIIS: error= 5.65D-07 at cycle  12 NSaved=  12.
 NSaved=12 IEnMin=12 EnMin= -489.940121484513     IErMin=12 ErrMin= 5.65D-07
 ErrMax= 5.65D-07  0.00D+00 EMaxC= 1.00D-01 BMatC= 1.30D-11 BMatP= 1.66D-10
 IDIUse=1 WtCom= 1.00D+00 WtEn= 0.00D+00
 Coeff-Com: -0.899D-07-0.122D-04-0.370D-04 0.350D-04 0.558D-03-0.577D-04
 Coeff-Com: -0.498D-02 0.594D-02 0.666D-01-0.126D+00-0.179D+00 0.124D+01
 Coeff:     -0.899D-07-0.122D-04-0.370D-04 0.350D-04 0.558D-03-0.577D-04
 Coeff:     -0.498D-02 0.594D-02 0.666D-01-0.126D+00-0.179D+00 0.124D+01
 Gap=     0.312 Goal=   None    Shift=    0.000
 RMSDP=8.08D-08 MaxDP=1.71D-06 DE=-1.27D-09 OVMax= 6.06D-06

 Cycle  13  Pass 1  IDiag  1:
 E= -489.940121484590     Delta-E=       -0.000000000077 Rises=F Damp=F
 DIIS: error= 1.29D-07 at cycle  13 NSaved=  13.
 NSaved=13 IEnMin=13 EnMin= -489.940121484590     IErMin=13 ErrMin= 1.29D-07
 ErrMax= 1.29D-07  0.00D+00 EMaxC= 1.00D-01 BMatC= 1.09D-12 BMatP= 1.30D-11
 IDIUse=1 WtCom= 1.00D+00 WtEn= 0.00D+00
 Coeff-Com:  0.115D-05 0.533D-06 0.902D-06-0.746D-04-0.322D-03 0.203D-03
 Coeff-Com:  0.460D-02-0.164D-01 0.109D-02 0.917D-01-0.158D+00-0.158D+00
 Coeff-Com:  0.123D+01
 Coeff:      0.115D-05 0.533D-06 0.902D-06-0.746D-04-0.322D-03 0.203D-03
 Coeff:      0.460D-02-0.164D-01 0.109D-02 0.917D-01-0.158D+00-0.158D+00
 Coeff:      0.123D+01
 Gap=     0.312 Goal=   None    Shift=    0.000
 RMSDP=3.04D-08 MaxDP=1.11D-06 DE=-7.72D-11 OVMax= 1.72D-06

 Cycle  14  Pass 1  IDiag  1:
 E= -489.940121484596     Delta-E=       -0.000000000005 Rises=F Damp=F
 DIIS: error= 5.49D-08 at cycle  14 NSaved=  14.
 NSaved=14 IEnMin=14 EnMin= -489.940121484596     IErMin=14 ErrMin= 5.49D-08
 ErrMax= 5.49D-08  0.00D+00 EMaxC= 1.00D-01 BMatC= 8.06D-14 BMatP= 1.09D-12
 IDIUse=1 WtCom= 1.00D+00 WtEn= 0.00D+00
 Coeff-Com: -0.352D-06 0.375D-06 0.173D-05 0.214D-04 0.719D-04-0.427D-04
 Coeff-Com: -0.120D-02 0.468D-02-0.319D-02-0.232D-01 0.599D-01-0.112D-01
 Coeff-Com: -0.460D+00 0.143D+01
 Coeff:     -0.352D-06 0.375D-06 0.173D-05 0.214D-04 0.719D-04-0.427D-04
 Coeff:     -0.120D-02 0.468D-02-0.319D-02-0.232D-01 0.599D-01-0.112D-01
 Coeff:     -0.460D+00 0.143D+01
 Gap=     0.312 Goal=   None    Shift=    0.000
 RMSDP=9.57D-09 MaxDP=3.78D-07 DE=-5.23D-12 OVMax= 6.22D-07

 SCF Done:  E(RHF) =  -489.940121485     A.U. after   14 cycles
            NFock= 14  Conv=0.96D-08     -V/T= 2.0005
 KE= 4.896876615014D+02 PE=-1.310700655870D+03 EE= 2.609455358868D+02
 Leave Link  502 at Wed May  4 19:03:41 2022, MaxMem=   754974720 cpu:              12.6 elap:               3.4
 (Enter /opt/cluster/programs/g16-c.01/g16/l801.exe)
 ExpMin= 3.51D-02 ExpMax= 3.74D+05 ExpMxC= 1.18D+03 IAcc=3 IRadAn=         5 AccDes= 0.00D+00
 HarFok:  IExCor=  205 AccDes= 0.00D+00 IRadAn=         5 IDoV=-2 UseB2=F ITyADJ=14
 ICtDFT= 12500011 ScaDFX=  1.000000  1.000000  1.000000  1.000000
 Largest valence mixing into a core orbital is  5.36D-04
 Largest core mixing into a valence orbital is  1.38D-04
 Range of M.O.s used for correlation:     8   142
 NBasis=   142 NAE=    15 NBE=    15 NFC=     7 NFV=     0
 NROrb=    135 NOA=     8 NOB=     8 NVA=   127 NVB=   127

 **** Warning!!: The largest alpha MO coefficient is  0.19257306D+02

 Leave Link  801 at Wed May  4 19:03:41 2022, MaxMem=   754974720 cpu:               0.5 elap:               0.1
 (Enter /opt/cluster/programs/g16-c.01/g16/l906.exe)
 Frozen-core derivative calculation, NFC=   7 NFV=   0.
 FulOut=F Deriv=T AODrv=T NAtomX=     3
   MMem=          74  MDisk=           8 MDiskD=           8
  W3Min=      359970 MinDsk=      723803 NBas6D=         169
 NBas2D=       14809    NTT=       14365    LW2=     3500000
    MDV=   754677671 MDiskM=       22268 NBas2p=       14795
 Fully direct method using O(ONN) memory.
 IMap=   1   2   3   4   5   6   7   8   9  10  11  12  13  14  15
 JobTyp=1 Pass  1:  I=   8 to  15 NPSUse=  4 ParTrn=T ParDer=T DoDerP=T.
 Spin components of T(2) and E(2):
     alpha-alpha T2 =       0.2912605625D-01 E2=     -0.6953602719D-01
     alpha-beta  T2 =       0.1526396368D+00 E2=     -0.3950826128D+00
     beta-beta   T2 =       0.2912605625D-01 E2=     -0.6953602719D-01
 The integrals were generated   1 times.
 ANorm=    0.1100405266D+01
 E2 =    -0.5341546672D+00 EUMP2 =    -0.49047427615176D+03
 Leave Link  906 at Wed May  4 19:03:50 2022, MaxMem=   754974720 cpu:              34.3 elap:               8.6
 (Enter /opt/cluster/programs/g16-c.01/g16/l1002.exe)
 Minotr:  Closed shell wavefunction.
          Computing MP2/KS-MP2 derivatives.
          Using Z-Vector for PSCF gradient.
          Skipping F1 and S1 gradient terms here.
          IDoAtm=111
          Frozen-core window.
          Direct CPHF calculation.
          Differentiating once with respect to electric field.
                with respect to dipole field.
          Differentiating once with respect to nuclear coordinates.
          Using symmetry in CPHF.
          Requested convergence is 1.0D-10 RMS, and 1.0D-09 maximum.
          NewPWx=F KeepS1=T KeepF1=T KeepIn=T MapXYZ=F SortEE=F KeepMc=T.
 Keep R1 ints in memory in symmetry-blocked form, NReq=77616884.
 FoFCou: FMM=F IPFlag=           0 FMFlag=           0 FMFlg1=           0
         NFxFlg=           0 DoJE=F BraDBF=F KetDBF=F FulRan=T
         wScrn=  0.000000 ICntrl=       600 IOpCl=  0 I1Cent=           0 NGrid=           0
         NMat0=    1 NMatS0=  10153 NMatT0=    0 NMatD0=    1 NMtDS0=    0 NMtDT0=    0
 Petite list used in FoFCou.
          MDV=     754974720 using IRadAn=       5.
          Solving linear equations separately, MaxMat=       0.
          There are     1 degrees of freedom in the 1st order CPHF.  IDoFFX=0 NUNeed=     1.
 LinEq1:  Iter=  0 NonCon=     1 RMS=5.01D-03 Max=8.11D-02 NDo=     1
 AX will form     1 AO Fock derivatives at one time.
 LinEq1:  Iter=  1 NonCon=     1 RMS=1.72D-03 Max=2.34D-02 NDo=     1
 LinEq1:  Iter=  2 NonCon=     1 RMS=6.04D-04 Max=6.14D-03 NDo=     1
 LinEq1:  Iter=  3 NonCon=     1 RMS=3.22D-04 Max=5.03D-03 NDo=     1
 LinEq1:  Iter=  4 NonCon=     1 RMS=1.32D-04 Max=1.72D-03 NDo=     1
 LinEq1:  Iter=  5 NonCon=     1 RMS=3.80D-05 Max=4.37D-04 NDo=     1
 LinEq1:  Iter=  6 NonCon=     1 RMS=1.11D-05 Max=1.51D-04 NDo=     1
 LinEq1:  Iter=  7 NonCon=     1 RMS=3.23D-06 Max=5.08D-05 NDo=     1
 LinEq1:  Iter=  8 NonCon=     1 RMS=6.64D-07 Max=5.80D-06 NDo=     1
 LinEq1:  Iter=  9 NonCon=     1 RMS=1.64D-07 Max=1.52D-06 NDo=     1
 LinEq1:  Iter= 10 NonCon=     1 RMS=3.84D-08 Max=4.62D-07 NDo=     1
 LinEq1:  Iter= 11 NonCon=     1 RMS=9.26D-09 Max=1.08D-07 NDo=     1
 LinEq1:  Iter= 12 NonCon=     1 RMS=1.93D-09 Max=2.20D-08 NDo=     1
 LinEq1:  Iter= 13 NonCon=     1 RMS=2.79D-10 Max=2.61D-09 NDo=     1
 LinEq1:  Iter= 14 NonCon=     0 RMS=3.36D-11 Max=2.85D-10 NDo=     1
 Linear equations converged to 1.000D-10 1.000D-09 after    14 iterations.
 End of Minotr F.D. properties file   721 does not exist.
 End of Minotr F.D. properties file   722 does not exist.
 End of Minotr F.D. properties file   788 does not exist.
 Leave Link 1002 at Wed May  4 19:03:54 2022, MaxMem=   754974720 cpu:              13.7 elap:               3.7
 (Enter /opt/cluster/programs/g16-c.01/g16/l601.exe)
 Copying SCF densities to generalized density rwf, IOpCl= 0 IROHF=0.

 **********************************************************************

            Population analysis using the SCF Density.

 **********************************************************************

 Orbital symmetries:
       Occupied  (A') (A') (A') (A') (A') (A") (A') (A') (A') (A')
                 (A') (A") (A') (A") (A')
       Virtual   (A') (A') (A') (A") (A') (A") (A') (A") (A') (A')
                 (A') (A') (A") (A') (A') (A") (A') (A') (A") (A')
                 (A") (A') (A') (A") (A') (A') (A") (A') (A") (A')
                 (A') (A') (A") (A') (A") (A') (A") (A') (A') (A")
                 (A') (A") (A') (A') (A") (A') (A') (A") (A') (A")
                 (A') (A') (A") (A') (A") (A') (A') (A') (A") (A')
                 (A") (A') (A') (A") (A') (A") (A') (A") (A') (A')
                 (A') (A") (A') (A") (A') (A') (A") (A') (A") (A')
                 (A') (A") (A') (A") (A') (A") (A') (A") (A') (A')
                 (A') (A") (A') (A') (A") (A') (A') (A") (A") (A')
                 (A') (A") (A') (A") (A') (A') (A") (A') (A') (A")
                 (A') (A') (A") (A') (A') (A") (A") (A') (A') (A")
                 (A') (A") (A') (A') (A') (A') (A')
 The electronic state is 1-A'.
 Alpha  occ. eigenvalues --  -91.73134 -15.35789 -11.10119  -8.73359  -6.41559
 Alpha  occ. eigenvalues --   -6.41310  -6.41309  -0.99626  -0.77435  -0.41351
 Alpha  occ. eigenvalues --   -0.33374  -0.29897  -0.29884  -0.14024  -0.13928
 Alpha virt. eigenvalues --    0.17229   0.19240   0.23528   0.23718   0.23912
 Alpha virt. eigenvalues --    0.23974   0.24910   0.30137   0.30310   0.31100
 Alpha virt. eigenvalues --    0.35594   0.38969   0.40374   0.41582   0.44258
 Alpha virt. eigenvalues --    0.44308   0.45082   0.54607   0.54627   0.54731
 Alpha virt. eigenvalues --    0.54971   0.56866   0.62553   0.63676   0.63932
 Alpha virt. eigenvalues --    0.72410   0.73642   0.75219   0.77717   0.77727
 Alpha virt. eigenvalues --    0.80455   0.82334   0.82941   0.88361   0.88911
 Alpha virt. eigenvalues --    0.91060   0.94527   0.94573   0.99891   1.03626
 Alpha virt. eigenvalues --    1.03885   1.05591   1.05600   1.12394   1.14055
 Alpha virt. eigenvalues --    1.14075   1.28755   1.28814   1.31002   1.31575
 Alpha virt. eigenvalues --    1.32752   1.35052   1.35854   1.37013   1.41634
 Alpha virt. eigenvalues --    1.42100   1.42800   1.56321   1.59210   1.59357
 Alpha virt. eigenvalues --    1.70611   1.71078   1.77906   1.85623   1.87189
 Alpha virt. eigenvalues --    1.88748   1.90984   2.01497   2.01848   2.06559
 Alpha virt. eigenvalues --    2.14114   2.14758   2.18907   2.28676   2.28695
 Alpha virt. eigenvalues --    2.34845   2.37285   2.40977   2.47295   2.49025
 Alpha virt. eigenvalues --    2.50874   2.51589   2.59644   2.59646   2.60830
 Alpha virt. eigenvalues --    2.62365   2.70671   2.71120   2.72290   2.85236
 Alpha virt. eigenvalues --    3.04099   3.04107   3.20860   3.36139   3.36187
 Alpha virt. eigenvalues --    3.61074   3.65471   3.65482   3.68238   3.68239
 Alpha virt. eigenvalues --    3.81655   3.85544   3.87301   3.92213   3.92572
 Alpha virt. eigenvalues --    4.15378   4.18100   4.29672   4.69967   4.75229
 Alpha virt. eigenvalues --    4.78929   4.94602   5.20269   5.20270   5.46040
 Alpha virt. eigenvalues --    5.46100   5.68952   5.69111   5.85160   5.87258
 Alpha virt. eigenvalues --    6.25064   6.36216   6.36492   6.44182   6.72514
 Alpha virt. eigenvalues --   11.80192  16.57921
          Condensed to atoms (all electrons):
               1          2          3
     1  N    6.819076   0.704757  -0.109095
     2  C    0.704757   5.045799   0.361857
     3  S   -0.109095   0.361857  16.220089
 Mulliken charges:
               1
     1  N   -0.414737
     2  C   -0.112413
     3  S   -0.472850
 Sum of Mulliken charges =  -1.00000
 Mulliken charges with hydrogens summed into heavy atoms:
               1
     1  N   -0.414737
     2  C   -0.112413
     3  S   -0.472850
 Electronic spatial extent (au):  <R**2>=            225.0092
 Charge=             -1.0000 electrons
 Dipole moment (field-independent basis, Debye):
    X=             -0.3917    Y=             -1.4728    Z=             -0.0000  Tot=              1.5240
 Quadrupole moment (field-independent basis, Debye-Ang):
   XX=            -29.8138   YY=            -40.6530   ZZ=            -29.2791
   XY=             -2.6542   XZ=              0.0000   YZ=              0.0000
 Traceless Quadrupole moment (field-independent basis, Debye-Ang):
   XX=              3.4348   YY=             -7.4044   ZZ=              3.9695
   XY=             -2.6542   XZ=              0.0000   YZ=              0.0000
 Octapole moment (field-independent basis, Debye-Ang**2):
  XXX=              1.3365  YYY=            -20.4415  ZZZ=             -0.0000  XYY=             -3.6819
  XXY=              1.3309  XXZ=             -0.0000  XZZ=              0.4739  YZZ=              1.9639
  YYZ=             -0.0000  XYZ=             -0.0000
 Hexadecapole moment (field-independent basis, Debye-Ang**3):
 XXXX=            -55.2287 YYYY=           -314.3773 ZZZZ=            -45.8540 XXXY=            -23.9937
 XXXZ=              0.0000 YYYX=            -28.5161 YYYZ=              0.0000 ZZZX=              0.0000
 ZZZY=              0.0000 XXYY=            -60.6622 XXZZ=            -16.8395 YYZZ=            -57.8740
 XXYZ=              0.0000 YYXZ=              0.0000 ZZXY=             -7.9113
 N-N= 7.012733699767D+01 E-N=-1.310700655730D+03  KE= 4.896876615014D+02
 Symmetry A'   KE= 4.486888604177D+02
 Symmetry A"   KE= 4.099880108369D+01
 No NMR shielding tensors so no spin-rotation constants.
 Leave Link  601 at Wed May  4 19:03:54 2022, MaxMem=   754974720 cpu:               0.8 elap:               0.2
 (Enter /opt/cluster/programs/g16-c.01/g16/l701.exe)
 ... and contract with generalized density number  2.
 Compute integral first derivatives.
 Leave Link  701 at Wed May  4 19:03:54 2022, MaxMem=   754974720 cpu:               0.7 elap:               0.2
 (Enter /opt/cluster/programs/g16-c.01/g16/l702.exe)
 L702 exits ... SP integral derivatives will be done elsewhere.
 Leave Link  702 at Wed May  4 19:03:54 2022, MaxMem=   754974720 cpu:               0.1 elap:               0.1
 (Enter /opt/cluster/programs/g16-c.01/g16/l703.exe)
 Integral derivatives from FoFJK, PRISM(SPDF).
 Compute integral first derivatives, UseDBF=F ICtDFT=           0.
 Calling FoFJK, ICntrl=  10002127 FMM=F ISym2X=1 I1Cent= 0 IOpClX= 0 NMat=1 NMatS=1 NMatT=0.
 FoFJK:  IHMeth= 1 ICntrl=10002127 DoSepK=F KAlg= 0 I1Cent=           0 FoldK=F
 IRaf=         0 NMat=       1 IRICut=       1 DoRegI=T DoRafI=F ISym2E= 1 IDoP0=0 IntGTp=1.
 FoFCou: FMM=F IPFlag=           0 FMFlag=      100000 FMFlg1=         800
         NFxFlg=           0 DoJE=F BraDBF=F KetDBF=F FulRan=T
         wScrn=  0.000000 ICntrl=  10002127 IOpCl=  0 I1Cent=           0 NGrid=           0
         NMat0=    1 NMatS0=      1 NMatT0=    0 NMatD0=    1 NMtDS0=    0 NMtDT0=    0
 Petite list used in FoFCou.
 Leave Link  703 at Wed May  4 19:03:58 2022, MaxMem=   754974720 cpu:              14.3 elap:               3.6
 (Enter /opt/cluster/programs/g16-c.01/g16/l716.exe)
 Dipole        =-1.22002558D-01-5.55747585D-01-3.56886063D-30
 ***** Axes restored to original set *****
 -------------------------------------------------------------------
 Center     Atomic                   Forces (Hartrees/Bohr)
 Number     Number              X              Y              Z
 -------------------------------------------------------------------
      1        7          -0.012246159    0.000000000   -0.002049004
      2        6           0.020357951   -0.000000000   -0.001895177
      3       16          -0.008111791    0.000000000    0.003944180
 -------------------------------------------------------------------
 Cartesian Forces:  Max     0.020357951 RMS     0.008521622
 Leave Link  716 at Wed May  4 19:03:58 2022, MaxMem=   754974720 cpu:               0.3 elap:               0.2
 (Enter /opt/cluster/programs/g16-c.01/g16/l103.exe)

 GradGradGradGradGradGradGradGradGradGradGradGradGradGradGradGradGradGrad
 Berny optimization.
 FormGI is forming the generalized inverse of G from B-inverse, IUseBI=4.
 Internal  Forces:  Max     0.013796695 RMS     0.008820087
 Search for a local minimum.
 Step number   1 out of a maximum of   20
 All quantities printed in internal units (Hartrees-Bohrs-Radians)
 RMS Force = .14381D-02 SwitMx=.10000D-02 MixMth= 1
 Mixed Optimization -- RFO/linear search
 Second derivative matrix not updated -- first step.
 The second derivative matrix:
                          R1        R2        A1        A2        A3
           R1           1.08759
           R2           0.00000   0.41030
           A1           0.00000   0.00000   0.25000
           A2           0.00000   0.00000   0.00000   0.25000
           A3           0.00000   0.00000   0.00000   0.00000   0.25000
 ITU=  0
     Eigenvalues ---    0.41030   1.087591000.000001000.000001000.00000
 RFO step:  Lambda=-1.37888389D-05 EMin= 4.10299174D-01
 Linear search not attempted -- first point.
 Iteration  1 RMS(Cart)=  0.00221390 RMS(Int)=  0.00000001
 Iteration  2 RMS(Cart)=  0.00000001 RMS(Int)=  0.00000000
 Iteration  1 RMS(Cart)=  0.00000000 RMS(Int)=  0.00000000
 ITry= 1 IFail=0 DXMaxC= 3.84D-03 DCOld= 1.00D+10 DXMaxT= 3.00D-01 DXLimC= 3.00D+00 Rises=F
 ClnCor:  largest displacement from symmetrization is 1.84D-15 for atom     1.
 Variable       Old X    -DE/DX   Delta X   Delta X   Delta X     New X
                                 (Linear)    (Quad)   (Total)
    R1        2.25323   0.00205   0.00000   0.00188   0.00188   2.25511
    R2        3.13877   0.00202   0.00000   0.00492   0.00492   3.14369
    A1        2.91470   0.01380   0.00000   0.00000   0.00000   2.91470
    A2        3.14159   0.00000   0.00000   0.00000   0.00000   3.14159
    A3        2.91470   0.01380   0.00000   0.00000   0.00000   2.91470
         Item               Value     Threshold  Converged?
 Maximum Force            0.002049     0.000450     NO 
 RMS     Force            0.001438     0.000300     NO 
 Maximum Displacement     0.003836     0.001800     NO 
 RMS     Displacement     0.002214     0.001200     NO 
 Predicted change in Energy=-6.894419D-06
 Lowest energy point so far.  Saving SCF results.
 GradGradGradGradGradGradGradGradGradGradGradGradGradGradGradGradGradGrad

 Leave Link  103 at Wed May  4 19:03:59 2022, MaxMem=   754974720 cpu:               1.1 elap:               0.6
 (Enter /opt/cluster/programs/g16-c.01/g16/l202.exe)
                          Input orientation:                          
 ---------------------------------------------------------------------
 Center     Atomic      Atomic             Coordinates (Angstroms)
 Number     Number       Type             X           Y           Z
 ---------------------------------------------------------------------
      1          7           0       -0.000160   -0.000000   -1.822456
      2          6           0       -0.000191    0.000000   -0.629102
      3         16           0        0.373988   -0.000000    0.991841
 ---------------------------------------------------------------------
                    Distance matrix (angstroms):
                    1          2          3
     1  N    0.000000
     2  C    1.193354   0.000000
     3  S    2.839059   1.663571   0.000000
 Stoichiometry    CNS(1-)
 Framework group  CS[SG(CNS)]
 Deg. of freedom     3
 Full point group                 CS      NOp   2
 RotChk:  IX=0 Diff= 1.87D-04
 Largest Abelian subgroup         CS      NOp   2
 Largest concise Abelian subgroup C1      NOp   1
                         Standard orientation:                         
 ---------------------------------------------------------------------
 Center     Atomic      Atomic             Coordinates (Angstroms)
 Number     Number       Type             X           Y           Z
 ---------------------------------------------------------------------
      1          7           0        0.384711    1.770092    0.000000
      2          6           0        0.000000    0.640450    0.000000
      3         16           0       -0.168311   -1.014584   -0.000000
 ---------------------------------------------------------------------
 Rotational constants (GHZ):        2309.8162317           5.9830977           5.9676398
 Leave Link  202 at Wed May  4 19:03:59 2022, MaxMem=   754974720 cpu:               0.1 elap:               0.0
 (Enter /opt/cluster/programs/g16-c.01/g16/l301.exe)
 Standard basis: Aug-CC-pVTZ (5D, 7F)
 Ernie: Thresh=  0.10000D-02 Tol=  0.10000D-05 Strict=F.
 Ernie:  19 primitive shells out of 124 were deleted.
 There are   114 symmetry adapted cartesian basis functions of A'  symmetry.
 There are    55 symmetry adapted cartesian basis functions of A"  symmetry.
 There are    93 symmetry adapted basis functions of A'  symmetry.
 There are    49 symmetry adapted basis functions of A"  symmetry.
   142 basis functions,   258 primitive gaussians,   169 cartesian basis functions
    15 alpha electrons       15 beta electrons
       nuclear repulsion energy        70.0375530386 Hartrees.
 IExCor=    0 DFT=F Ex=HF Corr=None ExCW=0 ScaHFX=  1.000000
 ScaDFX=  1.000000  1.000000  1.000000  1.000000 ScalE2=  1.000000  1.000000
 IRadAn=      5 IRanWt=     -1 IRanGd=            0 ICorTp=0 IEmpDi=  4
 NAtoms=    3 NActive=    3 NUniq=    3 SFac= 1.00D+00 NAtFMM=   60 NAOKFM=F Big=F
 Integral buffers will be    131072 words long.
 Raffenetti 1 integral format.
 Two-electron integral symmetry is turned on.
 Leave Link  301 at Wed May  4 19:03:59 2022, MaxMem=   754974720 cpu:               0.2 elap:               0.1
 (Enter /opt/cluster/programs/g16-c.01/g16/l302.exe)
 NPDir=0 NMtPBC=     1 NCelOv=     1 NCel=       1 NClECP=     1 NCelD=      1
         NCelK=      1 NCelE2=     1 NClLst=     1 CellRange=     0.0.
 One-electron integrals computed using PRISM.
 One-electron integral symmetry used in STVInt
 NBasis=   142 RedAO= T EigKep=  1.03D-04  NBF=    93    49
 NBsUse=   142 1.00D-06 EigRej= -1.00D+00 NBFU=    93    49
 Leave Link  302 at Wed May  4 19:04:01 2022, MaxMem=   754974720 cpu:               7.2 elap:               2.4
 (Enter /opt/cluster/programs/g16-c.01/g16/l303.exe)
 DipDrv:  MaxL=1.
 Leave Link  303 at Wed May  4 19:04:01 2022, MaxMem=   754974720 cpu:               0.3 elap:               0.1
 (Enter /opt/cluster/programs/g16-c.01/g16/l401.exe)
 Initial guess from the checkpoint file:  "gaussian_3_scn.chk"
 B after Tr=    -0.000000   -0.000000    0.000000
         Rot=    1.000000    0.000000   -0.000000   -0.000068 Ang=  -0.01 deg.
 Guess basis will be translated and rotated to current coordinates.
 JPrj=2 DoOrth=T DoCkMO=T.
 Initial guess orbital symmetries:
       Occupied  (A') (A') (A') (A') (A') (A") (A') (A') (A') (A')
                 (A') (A") (A') (A") (A')
       Virtual   (A') (A') (A') (A") (A') (A") (A') (A") (A') (A')
                 (A') (A') (A") (A') (A') (A") (A') (A') (A") (A')
                 (A") (A') (A') (A") (A') (A') (A") (A') (A") (A')
                 (A') (A') (A") (A') (A") (A') (A") (A') (A') (A")
                 (A') (A") (A') (A') (A") (A') (A') (A") (A') (A")
                 (A') (A') (A") (A') (A") (A') (A') (A') (A") (A')
                 (A") (A') (A') (A") (A') (A") (A') (A") (A') (A')
                 (A') (A") (A') (A") (A') (A') (A") (A') (A") (A')
                 (A') (A") (A') (A") (A') (A") (A') (A") (A') (A')
                 (A') (A") (A') (A') (A") (A') (A') (A") (A") (A')
                 (A') (A") (A') (A") (A') (A') (A") (A') (A') (A")
                 (A') (A') (A") (A') (A') (A") (A") (A') (A') (A")
                 (A') (A") (A') (A') (A') (A') (A')
 The electronic state of the initial guess is 1-A'.
 Leave Link  401 at Wed May  4 19:04:02 2022, MaxMem=   754974720 cpu:               1.7 elap:               0.6
 (Enter /opt/cluster/programs/g16-c.01/g16/l502.exe)
 Keep R1 ints in memory in symmetry-blocked form, NReq=77616006.
 FoFCou: FMM=F IPFlag=           0 FMFlag=           0 FMFlg1=           0
         NFxFlg=           0 DoJE=F BraDBF=F KetDBF=F FulRan=T
         wScrn=  0.000000 ICntrl=       600 IOpCl=  0 I1Cent=           0 NGrid=           0
         NMat0=    1 NMatS0=  10153 NMatT0=    0 NMatD0=    1 NMtDS0=    0 NMtDT0=    0
 Petite list used in FoFCou.
 Closed shell SCF:
 Using DIIS extrapolation, IDIIS=  1040.
 NGot=   754974720 LenX=   728846748 LenY=   728817746
 Requested convergence on RMS density matrix=1.00D-08 within 200 cycles.
 Requested convergence on MAX density matrix=1.00D-06.
 Requested convergence on             energy=1.00D-06.
 No special actions if energy rises.

 Cycle   1  Pass 1  IDiag  1:
 E= -489.939964357319    
 DIIS: error= 1.76D-04 at cycle   1 NSaved=   1.
 NSaved= 1 IEnMin= 1 EnMin= -489.939964357319     IErMin= 1 ErrMin= 1.76D-04
 ErrMax= 1.76D-04  0.00D+00 EMaxC= 1.00D-01 BMatC= 2.35D-06 BMatP= 2.35D-06
 IDIUse=3 WtCom= 9.98D-01 WtEn= 1.76D-03
 Coeff-Com:  0.100D+01
 Coeff-En:   0.100D+01
 Coeff:      0.100D+01
 Gap=     0.312 Goal=   None    Shift=    0.000
 RMSDP=1.61D-05 MaxDP=4.53D-04              OVMax= 5.11D-04

 Cycle   2  Pass 1  IDiag  1:
 E= -489.939966805478     Delta-E=       -0.000002448159 Rises=F Damp=F
 DIIS: error= 8.18D-05 at cycle   2 NSaved=   2.
 NSaved= 2 IEnMin= 2 EnMin= -489.939966805478     IErMin= 2 ErrMin= 8.18D-05
 ErrMax= 8.18D-05  0.00D+00 EMaxC= 1.00D-01 BMatC= 3.06D-07 BMatP= 2.35D-06
 IDIUse=1 WtCom= 1.00D+00 WtEn= 0.00D+00
 Coeff-Com:  0.138D+00 0.862D+00
 Coeff:      0.138D+00 0.862D+00
 Gap=     0.312 Goal=   None    Shift=    0.000
 RMSDP=4.44D-06 MaxDP=1.22D-04 DE=-2.45D-06 OVMax= 2.76D-04

 Cycle   3  Pass 1  IDiag  1:
 E= -489.939967142269     Delta-E=       -0.000000336791 Rises=F Damp=F
 DIIS: error= 4.00D-05 at cycle   3 NSaved=   3.
 NSaved= 3 IEnMin= 3 EnMin= -489.939967142269     IErMin= 3 ErrMin= 4.00D-05
 ErrMax= 4.00D-05  0.00D+00 EMaxC= 1.00D-01 BMatC= 6.78D-08 BMatP= 3.06D-07
 IDIUse=1 WtCom= 1.00D+00 WtEn= 0.00D+00
 Coeff-Com: -0.695D-01 0.231D+00 0.838D+00
 Coeff:     -0.695D-01 0.231D+00 0.838D+00
 Gap=     0.312 Goal=   None    Shift=    0.000
 RMSDP=1.43D-06 MaxDP=3.39D-05 DE=-3.37D-07 OVMax= 1.17D-04

 Cycle   4  Pass 1  IDiag  1:
 E= -489.939967232433     Delta-E=       -0.000000090165 Rises=F Damp=F
 DIIS: error= 1.16D-05 at cycle   4 NSaved=   4.
 NSaved= 4 IEnMin= 4 EnMin= -489.939967232433     IErMin= 4 ErrMin= 1.16D-05
 ErrMax= 1.16D-05  0.00D+00 EMaxC= 1.00D-01 BMatC= 9.25D-09 BMatP= 6.78D-08
 IDIUse=1 WtCom= 1.00D+00 WtEn= 0.00D+00
 Coeff-Com: -0.317D-01-0.209D-01 0.256D+00 0.796D+00
 Coeff:     -0.317D-01-0.209D-01 0.256D+00 0.796D+00
 Gap=     0.312 Goal=   None    Shift=    0.000
 RMSDP=7.44D-07 MaxDP=1.64D-05 DE=-9.02D-08 OVMax= 4.60D-05

 Cycle   5  Pass 1  IDiag  1:
 E= -489.939967246024     Delta-E=       -0.000000013590 Rises=F Damp=F
 DIIS: error= 5.75D-06 at cycle   5 NSaved=   5.
 NSaved= 5 IEnMin= 5 EnMin= -489.939967246024     IErMin= 5 ErrMin= 5.75D-06
 ErrMax= 5.75D-06  0.00D+00 EMaxC= 1.00D-01 BMatC= 1.26D-09 BMatP= 9.25D-09
 IDIUse=1 WtCom= 1.00D+00 WtEn= 0.00D+00
 Coeff-Com:  0.960D-02-0.551D-01-0.115D+00 0.129D+00 0.103D+01
 Coeff:      0.960D-02-0.551D-01-0.115D+00 0.129D+00 0.103D+01
 Gap=     0.312 Goal=   None    Shift=    0.000
 RMSDP=4.46D-07 MaxDP=1.38D-05 DE=-1.36D-08 OVMax= 2.74D-05

 Cycle   6  Pass 1  IDiag  1:
 E= -489.939967248986     Delta-E=       -0.000000002962 Rises=F Damp=F
 DIIS: error= 1.09D-06 at cycle   6 NSaved=   6.
 NSaved= 6 IEnMin= 6 EnMin= -489.939967248986     IErMin= 6 ErrMin= 1.09D-06
 ErrMax= 1.09D-06  0.00D+00 EMaxC= 1.00D-01 BMatC= 8.39D-11 BMatP= 1.26D-09
 IDIUse=1 WtCom= 1.00D+00 WtEn= 0.00D+00
 Coeff-Com:  0.310D-02 0.189D-02-0.266D-01-0.646D-01 0.230D-01 0.106D+01
 Coeff:      0.310D-02 0.189D-02-0.266D-01-0.646D-01 0.230D-01 0.106D+01
 Gap=     0.312 Goal=   None    Shift=    0.000
 RMSDP=1.12D-07 MaxDP=2.38D-06 DE=-2.96D-09 OVMax= 8.19D-06

 Cycle   7  Pass 1  IDiag  1:
 E= -489.939967249256     Delta-E=       -0.000000000270 Rises=F Damp=F
 DIIS: error= 6.93D-07 at cycle   7 NSaved=   7.
 NSaved= 7 IEnMin= 7 EnMin= -489.939967249256     IErMin= 7 ErrMin= 6.93D-07
 ErrMax= 6.93D-07  0.00D+00 EMaxC= 1.00D-01 BMatC= 1.19D-11 BMatP= 8.39D-11
 IDIUse=1 WtCom= 1.00D+00 WtEn= 0.00D+00
 Coeff-Com: -0.119D-02 0.761D-02 0.117D-01-0.102D-01-0.152D+00 0.174D-01
 Coeff-Com:  0.113D+01
 Coeff:     -0.119D-02 0.761D-02 0.117D-01-0.102D-01-0.152D+00 0.174D-01
 Coeff:      0.113D+01
 Gap=     0.312 Goal=   None    Shift=    0.000
 RMSDP=4.79D-08 MaxDP=1.03D-06 DE=-2.70D-10 OVMax= 3.42D-06

 Cycle   8  Pass 1  IDiag  1:
 E= -489.939967249287     Delta-E=       -0.000000000031 Rises=F Damp=F
 DIIS: error= 1.14D-07 at cycle   8 NSaved=   8.
 NSaved= 8 IEnMin= 8 EnMin= -489.939967249287     IErMin= 8 ErrMin= 1.14D-07
 ErrMax= 1.14D-07  0.00D+00 EMaxC= 1.00D-01 BMatC= 3.74D-13 BMatP= 1.19D-11
 IDIUse=1 WtCom= 1.00D+00 WtEn= 0.00D+00
 Coeff-Com: -0.294D-04-0.561D-03-0.620D-04 0.448D-02 0.764D-02-0.288D-01
 Coeff-Com: -0.153D+00 0.117D+01
 Coeff:     -0.294D-04-0.561D-03-0.620D-04 0.448D-02 0.764D-02-0.288D-01
 Coeff:     -0.153D+00 0.117D+01
 Gap=     0.312 Goal=   None    Shift=    0.000
 RMSDP=1.11D-08 MaxDP=3.29D-07 DE=-3.12D-11 OVMax= 6.03D-07

 Cycle   9  Pass 1  IDiag  1:
 E= -489.939967249288     Delta-E=       -0.000000000002 Rises=F Damp=F
 DIIS: error= 2.01D-08 at cycle   9 NSaved=   9.
 NSaved= 9 IEnMin= 9 EnMin= -489.939967249288     IErMin= 9 ErrMin= 2.01D-08
 ErrMax= 2.01D-08  0.00D+00 EMaxC= 1.00D-01 BMatC= 3.14D-14 BMatP= 3.74D-13
 IDIUse=1 WtCom= 1.00D+00 WtEn= 0.00D+00
 Coeff-Com:  0.609D-04-0.265D-03-0.655D-03 0.367D-03 0.619D-02 0.315D-02
 Coeff-Com: -0.358D-01-0.194D+00 0.122D+01
 Coeff:      0.609D-04-0.265D-03-0.655D-03 0.367D-03 0.619D-02 0.315D-02
 Coeff:     -0.358D-01-0.194D+00 0.122D+01
 Gap=     0.312 Goal=   None    Shift=    0.000
 RMSDP=3.40D-09 MaxDP=1.20D-07 DE=-1.59D-12 OVMax= 1.85D-07

 SCF Done:  E(RHF) =  -489.939967249     A.U. after    9 cycles
            NFock=  9  Conv=0.34D-08     -V/T= 2.0005
 KE= 4.896769459653D+02 PE=-1.310507631488D+03 EE= 2.608531652344D+02
 Leave Link  502 at Wed May  4 19:04:05 2022, MaxMem=   754974720 cpu:              11.8 elap:               3.1
 (Enter /opt/cluster/programs/g16-c.01/g16/l801.exe)
 ExpMin= 3.51D-02 ExpMax= 3.74D+05 ExpMxC= 1.18D+03 IAcc=3 IRadAn=         5 AccDes= 0.00D+00
 HarFok:  IExCor=  205 AccDes= 0.00D+00 IRadAn=         5 IDoV=-2 UseB2=F ITyADJ=14
 ICtDFT= 12500011 ScaDFX=  1.000000  1.000000  1.000000  1.000000
 DSYEVD-2 returned Info=         101 IAlg= 4 N=    50 NDim=    50 NE2=    15098045 trying  DSYEV.
 Largest valence mixing into a core orbital is  5.36D-04
 Largest core mixing into a valence orbital is  1.39D-04
 Range of M.O.s used for correlation:     8   142
 NBasis=   142 NAE=    15 NBE=    15 NFC=     7 NFV=     0
 NROrb=    135 NOA=     8 NOB=     8 NVA=   127 NVB=   127

 **** Warning!!: The largest alpha MO coefficient is  0.19331152D+02

 Leave Link  801 at Wed May  4 19:04:05 2022, MaxMem=   754974720 cpu:               0.4 elap:               0.1
 (Enter /opt/cluster/programs/g16-c.01/g16/l906.exe)
 Frozen-core derivative calculation, NFC=   7 NFV=   0.
 FulOut=F Deriv=T AODrv=T NAtomX=     3
   MMem=          74  MDisk=           8 MDiskD=           8
  W3Min=      359970 MinDsk=      723803 NBas6D=         169
 NBas2D=       14809    NTT=       14365    LW2=     3500000
    MDV=   754677671 MDiskM=       22268 NBas2p=       14795
 Fully direct method using O(ONN) memory.
 IMap=   1   2   3   4   5   6   7   8   9  10  11  12  13  14  15
 JobTyp=1 Pass  1:  I=   8 to  15 NPSUse=  4 ParTrn=T ParDer=T DoDerP=T.
 Spin components of T(2) and E(2):
     alpha-alpha T2 =       0.2915527516D-01 E2=     -0.6954852974D-01
     alpha-beta  T2 =       0.1528206664D+00 E2=     -0.3952196726D+00
     beta-beta   T2 =       0.2915527516D-01 E2=     -0.6954852974D-01
 The integrals were generated   1 times.
 ANorm=    0.1100514069D+01
 E2 =    -0.5343167321D+00 EUMP2 =    -0.49047428398135D+03
 Leave Link  906 at Wed May  4 19:04:13 2022, MaxMem=   754974720 cpu:              30.8 elap:               7.7
 (Enter /opt/cluster/programs/g16-c.01/g16/l1002.exe)
 Minotr:  Closed shell wavefunction.
          Computing MP2/KS-MP2 derivatives.
          Using Z-Vector for PSCF gradient.
          Skipping F1 and S1 gradient terms here.
          IDoAtm=111
          Frozen-core window.
          Direct CPHF calculation.
          Differentiating once with respect to electric field.
                with respect to dipole field.
          Differentiating once with respect to nuclear coordinates.
          Using symmetry in CPHF.
          Requested convergence is 1.0D-10 RMS, and 1.0D-09 maximum.
          NewPWx=F KeepS1=T KeepF1=T KeepIn=T MapXYZ=F SortEE=F KeepMc=T.
 Keep R1 ints in memory in symmetry-blocked form, NReq=77616884.
 FoFCou: FMM=F IPFlag=           0 FMFlag=           0 FMFlg1=           0
         NFxFlg=           0 DoJE=F BraDBF=F KetDBF=F FulRan=T
         wScrn=  0.000000 ICntrl=       600 IOpCl=  0 I1Cent=           0 NGrid=           0
         NMat0=    1 NMatS0=  10153 NMatT0=    0 NMatD0=    1 NMtDS0=    0 NMtDT0=    0
 Petite list used in FoFCou.
          MDV=     754974720 using IRadAn=       5.
          Solving linear equations separately, MaxMat=       0.
          There are     1 degrees of freedom in the 1st order CPHF.  IDoFFX=0 NUNeed=     1.
 LinEq1:  Iter=  0 NonCon=     1 RMS=5.02D-03 Max=8.11D-02 NDo=     1
 AX will form     1 AO Fock derivatives at one time.
 LinEq1:  Iter=  1 NonCon=     1 RMS=1.73D-03 Max=2.36D-02 NDo=     1
 LinEq1:  Iter=  2 NonCon=     1 RMS=6.06D-04 Max=6.12D-03 NDo=     1
 LinEq1:  Iter=  3 NonCon=     1 RMS=3.25D-04 Max=5.09D-03 NDo=     1
 LinEq1:  Iter=  4 NonCon=     1 RMS=1.33D-04 Max=1.73D-03 NDo=     1
 LinEq1:  Iter=  5 NonCon=     1 RMS=3.83D-05 Max=4.39D-04 NDo=     1
 LinEq1:  Iter=  6 NonCon=     1 RMS=1.12D-05 Max=1.52D-04 NDo=     1
 LinEq1:  Iter=  7 NonCon=     1 RMS=3.25D-06 Max=5.10D-05 NDo=     1
 LinEq1:  Iter=  8 NonCon=     1 RMS=6.69D-07 Max=5.84D-06 NDo=     1
 LinEq1:  Iter=  9 NonCon=     1 RMS=1.65D-07 Max=1.53D-06 NDo=     1
 LinEq1:  Iter= 10 NonCon=     1 RMS=3.87D-08 Max=4.64D-07 NDo=     1
 LinEq1:  Iter= 11 NonCon=     1 RMS=9.34D-09 Max=1.08D-07 NDo=     1
 LinEq1:  Iter= 12 NonCon=     1 RMS=1.95D-09 Max=2.22D-08 NDo=     1
 LinEq1:  Iter= 13 NonCon=     1 RMS=2.82D-10 Max=2.64D-09 NDo=     1
 LinEq1:  Iter= 14 NonCon=     0 RMS=3.39D-11 Max=2.88D-10 NDo=     1
 Linear equations converged to 1.000D-10 1.000D-09 after    14 iterations.
 End of Minotr F.D. properties file   721 does not exist.
 End of Minotr F.D. properties file   722 does not exist.
 End of Minotr F.D. properties file   788 does not exist.
 Leave Link 1002 at Wed May  4 19:04:17 2022, MaxMem=   754974720 cpu:              13.1 elap:               3.6
 (Enter /opt/cluster/programs/g16-c.01/g16/l701.exe)
 ... and contract with generalized density number  2.
 Compute integral first derivatives.
 Leave Link  701 at Wed May  4 19:04:17 2022, MaxMem=   754974720 cpu:               0.8 elap:               0.2
 (Enter /opt/cluster/programs/g16-c.01/g16/l702.exe)
 L702 exits ... SP integral derivatives will be done elsewhere.
 Leave Link  702 at Wed May  4 19:04:17 2022, MaxMem=   754974720 cpu:               0.1 elap:               0.0
 (Enter /opt/cluster/programs/g16-c.01/g16/l703.exe)
 Integral derivatives from FoFJK, PRISM(SPDF).
 Compute integral first derivatives, UseDBF=F ICtDFT=           0.
 Calling FoFJK, ICntrl=  10002127 FMM=F ISym2X=1 I1Cent= 0 IOpClX= 0 NMat=1 NMatS=1 NMatT=0.
 FoFJK:  IHMeth= 1 ICntrl=10002127 DoSepK=F KAlg= 0 I1Cent=           0 FoldK=F
 IRaf=         0 NMat=       1 IRICut=       1 DoRegI=T DoRafI=F ISym2E= 1 IDoP0=0 IntGTp=1.
 FoFCou: FMM=F IPFlag=           0 FMFlag=      100000 FMFlg1=         800
         NFxFlg=           0 DoJE=F BraDBF=F KetDBF=F FulRan=T
         wScrn=  0.000000 ICntrl=  10002127 IOpCl=  0 I1Cent=           0 NGrid=           0
         NMat0=    1 NMatS0=      1 NMatT0=    0 NMatD0=    1 NMtDS0=    0 NMtDT0=    0
 Petite list used in FoFCou.
 Leave Link  703 at Wed May  4 19:04:22 2022, MaxMem=   754974720 cpu:              15.0 elap:               4.8
 (Enter /opt/cluster/programs/g16-c.01/g16/l716.exe)
 Dipole        =-1.21558294D-01-5.54099819D-01-1.18523940D-29
 ***** Axes restored to original set *****
 -------------------------------------------------------------------
 Center     Atomic                   Forces (Hartrees/Bohr)
 Number     Number              X              Y              Z
 -------------------------------------------------------------------
      1        7          -0.012176595    0.000000000   -0.000111116
      2        6           0.020610090   -0.000000000   -0.002189236
      3       16          -0.008433495    0.000000000    0.002300352
 -------------------------------------------------------------------
 Cartesian Forces:  Max     0.020610090 RMS     0.008526207
 Leave Link  716 at Wed May  4 19:04:22 2022, MaxMem=   754974720 cpu:               0.3 elap:               0.2
 (Enter /opt/cluster/programs/g16-c.01/g16/l103.exe)

 GradGradGradGradGradGradGradGradGradGradGradGradGradGradGradGradGradGrad
 Berny optimization.
 Using GEDIIS/GDIIS optimizer.
 FormGI is forming the generalized inverse of G from B-inverse, IUseBI=4.
 Internal  Forces:  Max     0.013729787 RMS     0.008684988
 Search for a local minimum.
 Step number   2 out of a maximum of   20
 All quantities printed in internal units (Hartrees-Bohrs-Radians)
 RMS Force = .18094D-03 SwitMx=.10000D-02 MixMth= 2
 Mixed Optimization -- En-DIIS/RFO-DIIS
 Update second derivatives using D2CorX and points    1    2
 DE= -7.83D-06 DEPred=-6.89D-06 R= 1.14D+00
 TightC=F SS=  1.41D+00  RLast= 5.27D-03 DXNew= 5.0454D-01 1.5802D-02
 Trust test= 1.14D+00 RLast= 5.27D-03 DXMaxT set to 3.00D-01
 The second derivative matrix:
                          R1        R2        A1        A2        A3
           R1           1.09918
           R2          -0.02696   0.35060
           A1           0.01091   0.00942   0.25038
           A2           0.00000   0.00000  -0.00000   0.25000
           A3           0.01091   0.00942   0.00038  -0.00000   0.25038
 ITU=  1  0
 Use linear search instead of GDIIS.
     Eigenvalues ---    0.34963   1.100151000.000001000.000001000.00000
 RFO step:  Lambda=-5.17696186D-08 EMin= 3.49633325D-01
 Quartic linear search produced a step of  0.16169.
 Iteration  1 RMS(Cart)=  0.00038998 RMS(Int)=  0.00000000
 Iteration  2 RMS(Cart)=  0.00000000 RMS(Int)=  0.00000000
 Iteration  1 RMS(Cart)=  0.00000000 RMS(Int)=  0.00000000
 ITry= 1 IFail=0 DXMaxC= 6.97D-04 DCOld= 1.00D+10 DXMaxT= 3.00D-01 DXLimC= 3.00D+00 Rises=F
 ClnCor:  largest displacement from symmetrization is 2.25D-15 for atom     1.
 Variable       Old X    -DE/DX   Delta X   Delta X   Delta X     New X
                                 (Linear)    (Quad)   (Total)
    R1        2.25511   0.00011   0.00030  -0.00018   0.00013   2.25524
    R2        3.14369   0.00034   0.00080   0.00021   0.00100   3.14470
    A1        2.91470   0.01373   0.00000  -0.00000  -0.00000   2.91470
    A2        3.14159   0.00000  -0.00000   0.00000   0.00000   3.14159
    A3        2.91470   0.01373   0.00000   0.00000  -0.00000   2.91470
         Item               Value     Threshold  Converged?
 Maximum Force            0.000345     0.000450     YES
 RMS     Force            0.000181     0.000300     YES
 Maximum Displacement     0.000697     0.001800     YES
 RMS     Displacement     0.000390     0.001200     YES
 Predicted change in Energy=-1.777530D-07
 Optimization completed.
    -- Stationary point found.
                           ----------------------------
                           !   Optimized Parameters   !
                           ! (Angstroms and Degrees)  !
 --------------------------                            --------------------------
 ! Name  Definition              Value          Derivative Info.                !
 --------------------------------------------------------------------------------
 ! R1    R(1,2)                  1.1934         -DE/DX =    0.0001              !
 ! R2    R(2,3)                  1.6636         -DE/DX =    0.0003              !
 ! A1    L(1,2,3,-2,-1)        167.0            -DE/DX =    0.0137              !
 ! A2    L(1,2,3,-1,-2)        180.0            -DE/DX =    0.0                 !
 ! A3    A(1,2,3)              167.0            -DE/DX =    0.0137              !
 --------------------------------------------------------------------------------
 Lowest energy point so far.  Saving SCF results.
 Largest change from initial coordinates is atom    1       0.001 Angstoms.
 GradGradGradGradGradGradGradGradGradGradGradGradGradGradGradGradGradGrad

 Leave Link  103 at Wed May  4 19:04:22 2022, MaxMem=   754974720 cpu:               0.6 elap:               0.3
 (Enter /opt/cluster/programs/g16-c.01/g16/l202.exe)
                          Input orientation:                          
 ---------------------------------------------------------------------
 Center     Atomic      Atomic             Coordinates (Angstroms)
 Number     Number       Type             X           Y           Z
 ---------------------------------------------------------------------
      1          7           0       -0.000160   -0.000000   -1.822456
      2          6           0       -0.000191    0.000000   -0.629102
      3         16           0        0.373988   -0.000000    0.991841
 ---------------------------------------------------------------------
                    Distance matrix (angstroms):
                    1          2          3
     1  N    0.000000
     2  C    1.193354   0.000000
     3  S    2.839059   1.663571   0.000000
 Stoichiometry    CNS(1-)
 Framework group  CS[SG(CNS)]
 Deg. of freedom     3
 Full point group                 CS      NOp   2
 RotChk:  IX=0 Diff= 1.02D-13
 Largest Abelian subgroup         CS      NOp   2
 Largest concise Abelian subgroup C1      NOp   1
                         Standard orientation:                         
 ---------------------------------------------------------------------
 Center     Atomic      Atomic             Coordinates (Angstroms)
 Number     Number       Type             X           Y           Z
 ---------------------------------------------------------------------
      1          7           0        0.384711    1.770092   -0.000000
      2          6           0       -0.000000    0.640450    0.000000
      3         16           0       -0.168311   -1.014584    0.000000
 ---------------------------------------------------------------------
 Rotational constants (GHZ):        2309.8162317           5.9830977           5.9676398
 Leave Link  202 at Wed May  4 19:04:22 2022, MaxMem=   754974720 cpu:               0.1 elap:               0.0
 (Enter /opt/cluster/programs/g16-c.01/g16/l601.exe)
 Copying SCF densities to generalized density rwf, IOpCl= 0 IROHF=0.

 **********************************************************************

            Population analysis using the SCF Density.

 **********************************************************************

 Orbital symmetries:
       Occupied  (A') (A') (A') (A') (A') (A") (A') (A') (A') (A')
                 (A') (A") (A') (A") (A')
       Virtual   (A') (A') (A') (A") (A') (A") (A') (A") (A') (A')
                 (A') (A') (A") (A') (A') (A") (A') (A') (A") (A')
                 (A") (A') (A') (A") (A') (A') (A") (A') (A") (A')
                 (A') (A') (A") (A') (A") (A') (A") (A') (A') (A")
                 (A') (A") (A') (A') (A") (A') (A') (A") (A') (A")
                 (A') (A') (A") (A') (A") (A') (A') (A') (A") (A')
                 (A") (A') (A') (A") (A') (A") (A') (A") (A') (A')
                 (A') (A") (A') (A") (A') (A') (A") (A') (A") (A')
                 (A') (A") (A') (A") (A') (A") (A') (A") (A') (A')
                 (A') (A") (A') (A') (A") (A') (A') (A") (A") (A')
                 (A') (A") (A') (A") (A') (A') (A") (A') (A') (A")
                 (A') (A') (A") (A') (A') (A") (A") (A') (A') (A")
                 (A') (A") (A') (A') (A') (A') (A')
 The electronic state is 1-A'.
 Alpha  occ. eigenvalues --  -91.73167 -15.35845 -11.10180  -8.73382  -6.41581
 Alpha  occ. eigenvalues --   -6.41333  -6.41332  -0.99591  -0.77368  -0.41379
 Alpha  occ. eigenvalues --   -0.33371  -0.29861  -0.29848  -0.14038  -0.13943
 Alpha virt. eigenvalues --    0.17228   0.19237   0.23532   0.23721   0.23914
 Alpha virt. eigenvalues --    0.23977   0.24914   0.30127   0.30300   0.31094
 Alpha virt. eigenvalues --    0.35572   0.38947   0.40335   0.41561   0.44251
 Alpha virt. eigenvalues --    0.44304   0.45053   0.54595   0.54617   0.54727
 Alpha virt. eigenvalues --    0.54969   0.56838   0.62505   0.63663   0.63913
 Alpha virt. eigenvalues --    0.72398   0.73638   0.75201   0.77702   0.77712
 Alpha virt. eigenvalues --    0.80452   0.82326   0.82937   0.88353   0.88892
 Alpha virt. eigenvalues --    0.91059   0.94530   0.94576   0.99862   1.03585
 Alpha virt. eigenvalues --    1.03845   1.05588   1.05596   1.12309   1.14052
 Alpha virt. eigenvalues --    1.14071   1.28752   1.28811   1.30955   1.31523
 Alpha virt. eigenvalues --    1.32739   1.34949   1.35802   1.36944   1.41559
 Alpha virt. eigenvalues --    1.42046   1.42678   1.56299   1.59165   1.59311
 Alpha virt. eigenvalues --    1.70549   1.71004   1.77774   1.85607   1.87144
 Alpha virt. eigenvalues --    1.88709   1.90935   2.01452   2.01800   2.06516
 Alpha virt. eigenvalues --    2.14047   2.14646   2.18788   2.28662   2.28681
 Alpha virt. eigenvalues --    2.34893   2.37262   2.41017   2.47232   2.48923
 Alpha virt. eigenvalues --    2.50890   2.51519   2.59648   2.59649   2.60728
 Alpha virt. eigenvalues --    2.62227   2.70589   2.71054   2.72110   2.85015
 Alpha virt. eigenvalues --    3.04130   3.04147   3.20391   3.35910   3.35949
 Alpha virt. eigenvalues --    3.61321   3.65424   3.65427   3.68210   3.68212
 Alpha virt. eigenvalues --    3.81528   3.85431   3.87186   3.92052   3.92415
 Alpha virt. eigenvalues --    4.15205   4.17933   4.29478   4.69885   4.74979
 Alpha virt. eigenvalues --    4.78675   4.94064   5.20222   5.20223   5.45950
 Alpha virt. eigenvalues --    5.46012   5.68785   5.68944   5.85063   5.87147
 Alpha virt. eigenvalues --    6.24414   6.35762   6.36013   6.43873   6.71821
 Alpha virt. eigenvalues --   11.79549  16.53985
          Condensed to atoms (all electrons):
               1          2          3
     1  N    6.818388   0.705459  -0.107997
     2  C    0.705459   5.043064   0.361836
     3  S   -0.107997   0.361836  16.219951
 Mulliken charges:
               1
     1  N   -0.415850
     2  C   -0.110360
     3  S   -0.473790
 Sum of Mulliken charges =  -1.00000
 Mulliken charges with hydrogens summed into heavy atoms:
               1
     1  N   -0.415850
     2  C   -0.110360
     3  S   -0.473790
 Electronic spatial extent (au):  <R**2>=            225.4317
 Charge=             -1.0000 electrons
 Dipole moment (field-independent basis, Debye):
    X=             -0.3913    Y=             -1.4713    Z=             -0.0000  Tot=              1.5224
 Quadrupole moment (field-independent basis, Debye-Ang):
   XX=            -29.8242   YY=            -40.6686   ZZ=            -29.2903
   XY=             -2.6531   XZ=              0.0000   YZ=             -0.0000
 Traceless Quadrupole moment (field-independent basis, Debye-Ang):
   XX=              3.4369   YY=             -7.4076   ZZ=              3.9707
   XY=             -2.6531   XZ=              0.0000   YZ=             -0.0000
 Octapole moment (field-independent basis, Debye-Ang**2):
  XXX=              1.3363  YYY=            -20.4855  ZZZ=             -0.0000  XYY=             -3.6838
  XXY=              1.3321  XXZ=             -0.0000  XZZ=              0.4737  YZZ=              1.9644
  YYZ=             -0.0000  XYZ=             -0.0000
 Hexadecapole moment (field-independent basis, Debye-Ang**3):
 XXXX=            -55.2650 YYYY=           -315.0621 ZZZZ=            -45.8848 XXXY=            -24.0299
 XXXZ=              0.0000 YYYX=            -28.5568 YYYZ=             -0.0000 ZZZX=              0.0000
 ZZZY=              0.0000 XXYY=            -60.7808 XXZZ=            -16.8507 YYZZ=            -57.9922
 XXYZ=              0.0000 YYXZ=             -0.0000 ZZXY=             -7.9236
 N-N= 7.003755303859D+01 E-N=-1.310507631325D+03  KE= 4.896769459653D+02
 Symmetry A'   KE= 4.486792721993D+02
 Symmetry A"   KE= 4.099767376599D+01
 No NMR shielding tensors so no spin-rotation constants.
 Leave Link  601 at Wed May  4 19:04:23 2022, MaxMem=   754974720 cpu:               2.2 elap:               1.1
 (Enter /opt/cluster/programs/g16-c.01/g16/l9999.exe)
 Unable to Open any file for archive entry.
 1\1\GINC-NODE41\FOpt\RMP2-FC\Aug-CC-pVTZ\C1N1S1(1-)\TOEPFER\04-May-202
 2\0\\#P MP2/aug-cc-pVTZ scf(maxcycle=200) opt geom(AddGIC)\\Gaussian i
 nput\\-1,1\N,-0.0001596271,0.,-1.8224563897\C,-0.0001913911,0.,-0.6291
 024426\S,0.373987521,0.,0.9918413301\\Version=ES64L-G16RevC.01\State=1
 -A'\HF=-489.9399672\MP2=-490.474284\RMSD=3.402e-09\RMSF=8.526e-03\Dipo
 le=0.0635464,0.,0.5637064\PG=CS [SG(C1N1S1)]\\@
 The archive entry for this job was punched.


 THE THINKER DIES, BUT HIS THOUGHTS ARE BEYOND THE 
 REACH OF DESTRUCTION.  MEN ARE MORTAL; BUT IDEAS 
 ARE IMMORTAL.
                              -- WALTER LIPPMANN
 Job cpu time:       0 days  0 hours  2 minutes 49.8 seconds.
 Elapsed time:       0 days  0 hours  0 minutes 47.0 seconds.
 File lengths (MBytes):  RWF=     16 Int=      0 D2E=      0 Chk=      3 Scr=      1
 Normal termination of Gaussian 16 at Wed May  4 19:04:23 2022.
