 Entering Gaussian System, Link 0=/opt/cluster/programs/g16-c.01/g16/g16
 Input=/scratch/toepfer/jobs/tmp.5739910/gaussian_2_scn.com
 Output=/scratch/toepfer/jobs/tmp.5739910/gaussian_2_scn.out
 Initial command:
 /opt/cluster/programs/g16-c.01/g16/l1.exe "/scratch/toepfer/jobs/tmp.5739910/Gau-144546.inp" -scrdir="/scratch/toepfer/jobs/tmp.5739910/"
 Entering Link 1 = /opt/cluster/programs/g16-c.01/g16/l1.exe PID=    144554.
  
 Copyright (c) 1988-2019, Gaussian, Inc.  All Rights Reserved.
  
 This is part of the Gaussian(R) 16 program.  It is based on
 the Gaussian(R) 09 system (copyright 2009, Gaussian, Inc.),
 the Gaussian(R) 03 system (copyright 2003, Gaussian, Inc.),
 the Gaussian(R) 98 system (copyright 1998, Gaussian, Inc.),
 the Gaussian(R) 94 system (copyright 1995, Gaussian, Inc.),
 the Gaussian 92(TM) system (copyright 1992, Gaussian, Inc.),
 the Gaussian 90(TM) system (copyright 1990, Gaussian, Inc.),
 the Gaussian 88(TM) system (copyright 1988, Gaussian, Inc.),
 the Gaussian 86(TM) system (copyright 1986, Carnegie Mellon
 University), and the Gaussian 82(TM) system (copyright 1983,
 Carnegie Mellon University). Gaussian is a federally registered
 trademark of Gaussian, Inc.
  
 This software contains proprietary and confidential information,
 including trade secrets, belonging to Gaussian, Inc.
  
 This software is provided under written license and may be
 used, copied, transmitted, or stored only in accord with that
 written license.
  
 The following legend is applicable only to US Government
 contracts under FAR:
  
                    RESTRICTED RIGHTS LEGEND
  
 Use, reproduction and disclosure by the US Government is
 subject to restrictions as set forth in subparagraphs (a)
 and (c) of the Commercial Computer Software - Restricted
 Rights clause in FAR 52.227-19.
  
 Gaussian, Inc.
 340 Quinnipiac St., Bldg. 40, Wallingford CT 06492
  
  
 ---------------------------------------------------------------
 Warning -- This program may not be used in any manner that
 competes with the business of Gaussian, Inc. or will provide
 assistance to any competitor of Gaussian, Inc.  The licensee
 of this program is prohibited from giving any competitor of
 Gaussian, Inc. access to this program.  By using this program,
 the user acknowledges that Gaussian, Inc. is engaged in the
 business of creating and licensing software in the field of
 computational chemistry and represents and warrants to the
 licensee that it is not a competitor of Gaussian, Inc. and that
 it will not use this program in any manner prohibited above.
 ---------------------------------------------------------------
  

 Cite this work as:
 Gaussian 16, Revision C.01,
 M. J. Frisch, G. W. Trucks, H. B. Schlegel, G. E. Scuseria, 
 M. A. Robb, J. R. Cheeseman, G. Scalmani, V. Barone, 
 G. A. Petersson, H. Nakatsuji, X. Li, M. Caricato, A. V. Marenich, 
 J. Bloino, B. G. Janesko, R. Gomperts, B. Mennucci, H. P. Hratchian, 
 J. V. Ortiz, A. F. Izmaylov, J. L. Sonnenberg, D. Williams-Young, 
 F. Ding, F. Lipparini, F. Egidi, J. Goings, B. Peng, A. Petrone, 
 T. Henderson, D. Ranasinghe, V. G. Zakrzewski, J. Gao, N. Rega, 
 G. Zheng, W. Liang, M. Hada, M. Ehara, K. Toyota, R. Fukuda, 
 J. Hasegawa, M. Ishida, T. Nakajima, Y. Honda, O. Kitao, H. Nakai, 
 T. Vreven, K. Throssell, J. A. Montgomery, Jr., J. E. Peralta, 
 F. Ogliaro, M. J. Bearpark, J. J. Heyd, E. N. Brothers, K. N. Kudin, 
 V. N. Staroverov, T. A. Keith, R. Kobayashi, J. Normand, 
 K. Raghavachari, A. P. Rendell, J. C. Burant, S. S. Iyengar, 
 J. Tomasi, M. Cossi, J. M. Millam, M. Klene, C. Adamo, R. Cammi, 
 J. W. Ochterski, R. L. Martin, K. Morokuma, O. Farkas, 
 J. B. Foresman, and D. J. Fox, Gaussian, Inc., Wallingford CT, 2019.
 
 ******************************************
 Gaussian 16:  ES64L-G16RevC.01  3-Jul-2019
                 4-May-2022 
 ******************************************
 %nproc=4
 Will use up to    4 processors via shared memory.
 %mem=5760MB
 %chk=gaussian_2_scn.chk
 -----------------------------------------------------
 #P MP2/aug-cc-pVTZ scf(maxcycle=200) opt geom(AddGIC)
 -----------------------------------------------------
 1/18=20,19=15,38=1,145=903/1,3;
 2/9=110,12=2,17=6,18=5,40=1/2;
 3/5=16,6=1,7=10,11=9,25=1,30=1,71=1/1,2,3;
 4//1;
 5/5=2,7=200,38=5/2;
 8/6=4,10=1/1;
 9/15=2,16=-3/6;
 10/5=1/2;
 6/7=2,8=2,9=2,10=2/1;
 7/12=2/1,2,3,16;
 1/18=20,19=15,145=903/3(2);
 2/9=110/2;
 99//99;
 2/9=110/2;
 3/5=16,6=1,7=10,11=9,25=1,30=1,71=1/1,2,3;
 4/5=5,16=3,69=1/1;
 5/5=2,7=200,38=5/2;
 8/6=4,10=1/1;
 9/15=2,16=-3/6;
 10/5=1/2;
 7/12=2/1,2,3,16;
 1/18=20,19=15,145=903/3(-8);
 2/9=110/2;
 6/7=2,8=2,9=2,10=2/1;
 99/9=10/99;
 Leave Link    1 at Wed May  4 19:03:36 2022, MaxMem=   754974720 cpu:               0.1 elap:               0.0
 (Enter /opt/cluster/programs/g16-c.01/g16/l101.exe)
 --------------
 Gaussian input
 --------------
 Symbolic Z-matrix:
 Charge = -1 Multiplicity = 1
 N                     0.        0.       -1.82094 
 C                     0.        0.       -0.62859 
 S                     0.25983   0.        1.01193 
 
 Initializing the GIC definitions file.
 Number of initial coordinates =     4
 Number of input entries/lines =     1
 Number of additional coordinates =     1
 Number of removed coordinates =     0
 Number of frozen coordinates =     1
 Number of final active and frozen coordinates =     5
 ITRead=  0  0  0
 MicOpt= -1 -1 -1
 NAtoms=      3 NQM=        3 NQMF=       0 NMMI=      0 NMMIF=      0
                NMic=       0 NMicF=      0.
                    Isotopes and Nuclear Properties:
 (Nuclear quadrupole moments (NQMom) in fm**2, nuclear magnetic moments (NMagM)
  in nuclear magnetons)

  Atom         1           2           3
 IAtWgt=          14          12          32
 AtmWgt=  14.0030740  12.0000000  31.9720718
 NucSpn=           2           0           0
 AtZEff=  -0.0000000  -0.0000000  -0.0000000
 NQMom=    2.0440000   0.0000000   0.0000000
 NMagM=    0.4037610   0.0000000   0.0000000
 AtZNuc=   7.0000000   6.0000000  16.0000000
 Leave Link  101 at Wed May  4 19:03:36 2022, MaxMem=   754974720 cpu:               1.6 elap:               0.8
 (Enter /opt/cluster/programs/g16-c.01/g16/l103.exe)

 GradGradGradGradGradGradGradGradGradGradGradGradGradGradGradGradGradGrad
 Berny optimization.
 Initialization pass.
                           ----------------------------
                           !    Initial Parameters    !
                           ! (Angstroms and Degrees)  !
 --------------------------                            --------------------------
 ! Name  Definition              Value          Derivative Info.                !
 --------------------------------------------------------------------------------
 ! R1    R(1,2)                  1.1924         estimate D2E/DX2                !
 ! R2    R(2,3)                  1.661          estimate D2E/DX2                !
 ! A1    L(1,2,3,-2,-1)        171.0            estimate D2E/DX2                !
 ! A2    L(1,2,3,-1,-2)        180.0            estimate D2E/DX2                !
 ! A3    A(1,2,3)              171.0            Frozen                          !
 --------------------------------------------------------------------------------
 Trust Radius=3.00D-01 FncErr=1.00D-07 GrdErr=1.00D-07 EigMax=2.50D+02 EigMin=1.00D-04
 Number of steps in this run=     20 maximum allowed number of steps=    100.
 GradGradGradGradGradGradGradGradGradGradGradGradGradGradGradGradGradGrad

 Leave Link  103 at Wed May  4 19:03:37 2022, MaxMem=   754974720 cpu:               0.0 elap:               0.0
 (Enter /opt/cluster/programs/g16-c.01/g16/l202.exe)
                          Input orientation:                          
 ---------------------------------------------------------------------
 Center     Atomic      Atomic             Coordinates (Angstroms)
 Number     Number       Type             X           Y           Z
 ---------------------------------------------------------------------
      1          7           0        0.000000    0.000000   -1.820943
      2          6           0        0.000000    0.000000   -0.628586
      3         16           0        0.259833    0.000000    1.011933
 ---------------------------------------------------------------------
                    Distance matrix (angstroms):
                    1          2          3
     1  N    0.000000
     2  C    1.192357   0.000000
     3  S    2.844767   1.660968   0.000000
 Stoichiometry    CNS(1-)
 Framework group  CS[SG(CNS)]
 Deg. of freedom     3
 Full point group                 CS      NOp   2
 Largest Abelian subgroup         CS      NOp   2
 Largest concise Abelian subgroup C1      NOp   1
                         Standard orientation:                         
 ---------------------------------------------------------------------
 Center     Atomic      Atomic             Coordinates (Angstroms)
 Number     Number       Type             X           Y           Z
 ---------------------------------------------------------------------
      1          7           0        0.269723    1.795180    0.000000
      2          6           0        0.000000    0.633731    0.000000
      3         16           0       -0.118004   -1.023040    0.000000
 ---------------------------------------------------------------------
 Rotational constants (GHZ):        4816.3225651           5.9619077           5.9545369
 Leave Link  202 at Wed May  4 19:03:37 2022, MaxMem=   754974720 cpu:               0.1 elap:               0.0
 (Enter /opt/cluster/programs/g16-c.01/g16/l301.exe)
 Standard basis: Aug-CC-pVTZ (5D, 7F)
 Ernie: Thresh=  0.10000D-02 Tol=  0.10000D-05 Strict=F.
 Ernie:  19 primitive shells out of 124 were deleted.
 There are   114 symmetry adapted cartesian basis functions of A'  symmetry.
 There are    55 symmetry adapted cartesian basis functions of A"  symmetry.
 There are    93 symmetry adapted basis functions of A'  symmetry.
 There are    49 symmetry adapted basis functions of A"  symmetry.
   142 basis functions,   258 primitive gaussians,   169 cartesian basis functions
    15 alpha electrons       15 beta electrons
       nuclear repulsion energy        70.0590993035 Hartrees.
 IExCor=    0 DFT=F Ex=HF Corr=None ExCW=0 ScaHFX=  1.000000
 ScaDFX=  1.000000  1.000000  1.000000  1.000000 ScalE2=  1.000000  1.000000
 IRadAn=      5 IRanWt=     -1 IRanGd=            0 ICorTp=0 IEmpDi=  4
 NAtoms=    3 NActive=    3 NUniq=    3 SFac= 1.00D+00 NAtFMM=   60 NAOKFM=F Big=F
 Integral buffers will be    131072 words long.
 Raffenetti 1 integral format.
 Two-electron integral symmetry is turned on.
 Leave Link  301 at Wed May  4 19:03:37 2022, MaxMem=   754974720 cpu:               0.2 elap:               0.1
 (Enter /opt/cluster/programs/g16-c.01/g16/l302.exe)
 NPDir=0 NMtPBC=     1 NCelOv=     1 NCel=       1 NClECP=     1 NCelD=      1
         NCelK=      1 NCelE2=     1 NClLst=     1 CellRange=     0.0.
 One-electron integrals computed using PRISM.
 One-electron integral symmetry used in STVInt
 NBasis=   142 RedAO= T EigKep=  1.02D-04  NBF=    93    49
 NBsUse=   142 1.00D-06 EigRej= -1.00D+00 NBFU=    93    49
 Leave Link  302 at Wed May  4 19:03:37 2022, MaxMem=   754974720 cpu:               0.6 elap:               0.2
 (Enter /opt/cluster/programs/g16-c.01/g16/l303.exe)
 DipDrv:  MaxL=1.
 Leave Link  303 at Wed May  4 19:03:37 2022, MaxMem=   754974720 cpu:               0.2 elap:               0.0
 (Enter /opt/cluster/programs/g16-c.01/g16/l401.exe)
 ExpMin= 3.51D-02 ExpMax= 3.74D+05 ExpMxC= 1.18D+03 IAcc=3 IRadAn=         5 AccDes= 0.00D+00
 Harris functional with IExCor=  205 and IRadAn=       5 diagonalized for initial guess.
 HarFok:  IExCor=  205 AccDes= 0.00D+00 IRadAn=         5 IDoV= 1 UseB2=F ITyADJ=14
 ICtDFT=  3500011 ScaDFX=  1.000000  1.000000  1.000000  1.000000
 FoFCou: FMM=F IPFlag=           0 FMFlag=      100000 FMFlg1=           0
         NFxFlg=           0 DoJE=T BraDBF=F KetDBF=T FulRan=T
         wScrn=  0.000000 ICntrl=       500 IOpCl=  0 I1Cent=   200000004 NGrid=           0
         NMat0=    1 NMatS0=      1 NMatT0=    0 NMatD0=    1 NMtDS0=    0 NMtDT0=    0
 Petite list used in FoFCou.
 Harris En= -489.765699438681    
 JPrj=0 DoOrth=F DoCkMO=F.
 Initial guess orbital symmetries:
       Occupied  (A') (A') (A') (A') (A') (A") (A') (A') (A') (A')
                 (A') (A") (A') (A") (A')
       Virtual   (A') (A") (A') (A') (A') (A") (A') (A') (A") (A')
                 (A') (A") (A') (A') (A") (A') (A') (A') (A") (A')
                 (A") (A') (A') (A") (A') (A') (A") (A') (A') (A")
                 (A') (A') (A") (A') (A") (A") (A') (A') (A') (A")
                 (A') (A') (A") (A') (A") (A') (A') (A") (A') (A')
                 (A") (A') (A") (A') (A") (A') (A') (A') (A") (A')
                 (A") (A') (A') (A") (A') (A") (A') (A") (A') (A')
                 (A') (A") (A') (A") (A') (A') (A") (A') (A") (A')
                 (A") (A') (A') (A") (A') (A") (A') (A') (A") (A')
                 (A') (A") (A') (A") (A') (A') (A') (A") (A") (A')
                 (A') (A") (A') (A') (A") (A') (A") (A') (A') (A")
                 (A') (A') (A") (A') (A') (A") (A") (A') (A') (A")
                 (A') (A') (A") (A') (A') (A') (A')
 The electronic state of the initial guess is 1-A'.
 Leave Link  401 at Wed May  4 19:03:37 2022, MaxMem=   754974720 cpu:               1.3 elap:               0.3
 (Enter /opt/cluster/programs/g16-c.01/g16/l502.exe)
 Keep R1 ints in memory in symmetry-blocked form, NReq=77616006.
 FoFCou: FMM=F IPFlag=           0 FMFlag=           0 FMFlg1=           0
         NFxFlg=           0 DoJE=F BraDBF=F KetDBF=F FulRan=T
         wScrn=  0.000000 ICntrl=       600 IOpCl=  0 I1Cent=           0 NGrid=           0
         NMat0=    1 NMatS0=  10153 NMatT0=    0 NMatD0=    1 NMtDS0=    0 NMtDT0=    0
 Petite list used in FoFCou.
 Closed shell SCF:
 Using DIIS extrapolation, IDIIS=  1040.
 NGot=   754974720 LenX=   728846748 LenY=   728817746
 Requested convergence on RMS density matrix=1.00D-08 within 200 cycles.
 Requested convergence on MAX density matrix=1.00D-06.
 Requested convergence on             energy=1.00D-06.
 No special actions if energy rises.

 Cycle   1  Pass 1  IDiag  1:
 E= -489.753001081394    
 DIIS: error= 4.46D-02 at cycle   1 NSaved=   1.
 NSaved= 1 IEnMin= 1 EnMin= -489.753001081394     IErMin= 1 ErrMin= 4.46D-02
 ErrMax= 4.46D-02  0.00D+00 EMaxC= 1.00D-01 BMatC= 3.50D-01 BMatP= 3.50D-01
 IDIUse=3 WtCom= 5.54D-01 WtEn= 4.46D-01
 Coeff-Com:  0.100D+01
 Coeff-En:   0.100D+01
 Coeff:      0.100D+01
 Gap=     0.590 Goal=   None    Shift=    0.000
 GapD=    0.590 DampG=2.000 DampE=0.500 DampFc=1.0000 IDamp=-1.
 RMSDP=3.37D-03 MaxDP=6.90D-02              OVMax= 2.13D-01

 Cycle   2  Pass 1  IDiag  1:
 E= -489.868579344899     Delta-E=       -0.115578263505 Rises=F Damp=F
 DIIS: error= 3.13D-02 at cycle   2 NSaved=   2.
 NSaved= 2 IEnMin= 2 EnMin= -489.868579344899     IErMin= 2 ErrMin= 3.13D-02
 ErrMax= 3.13D-02  0.00D+00 EMaxC= 1.00D-01 BMatC= 7.57D-02 BMatP= 3.50D-01
 IDIUse=3 WtCom= 6.87D-01 WtEn= 3.13D-01
 Coeff-Com:  0.258D+00 0.742D+00
 Coeff-En:   0.119D+00 0.881D+00
 Coeff:      0.215D+00 0.785D+00
 Gap=     0.385 Goal=   None    Shift=    0.000
 RMSDP=1.49D-03 MaxDP=4.23D-02 DE=-1.16D-01 OVMax= 9.42D-02

 Cycle   3  Pass 1  IDiag  1:
 E= -489.926170643589     Delta-E=       -0.057591298690 Rises=F Damp=F
 DIIS: error= 1.58D-02 at cycle   3 NSaved=   3.
 NSaved= 3 IEnMin= 3 EnMin= -489.926170643589     IErMin= 3 ErrMin= 1.58D-02
 ErrMax= 1.58D-02  0.00D+00 EMaxC= 1.00D-01 BMatC= 1.68D-02 BMatP= 7.57D-02
 IDIUse=3 WtCom= 8.42D-01 WtEn= 1.58D-01
 Coeff-Com: -0.170D-01 0.301D+00 0.715D+00
 Coeff-En:   0.000D+00 0.522D-01 0.948D+00
 Coeff:     -0.143D-01 0.262D+00 0.752D+00
 Gap=     0.321 Goal=   None    Shift=    0.000
 RMSDP=6.04D-04 MaxDP=1.45D-02 DE=-5.76D-02 OVMax= 5.08D-02

 Cycle   4  Pass 1  IDiag  1:
 E= -489.940759029668     Delta-E=       -0.014588386078 Rises=F Damp=F
 DIIS: error= 4.67D-03 at cycle   4 NSaved=   4.
 NSaved= 4 IEnMin= 4 EnMin= -489.940759029668     IErMin= 4 ErrMin= 4.67D-03
 ErrMax= 4.67D-03  0.00D+00 EMaxC= 1.00D-01 BMatC= 1.18D-03 BMatP= 1.68D-02
 IDIUse=3 WtCom= 9.53D-01 WtEn= 4.67D-02
 Coeff-Com: -0.142D-01 0.555D-01 0.283D+00 0.676D+00
 Coeff-En:   0.000D+00 0.000D+00 0.000D+00 0.100D+01
 Coeff:     -0.135D-01 0.529D-01 0.269D+00 0.691D+00
 Gap=     0.311 Goal=   None    Shift=    0.000
 RMSDP=1.44D-04 MaxDP=3.01D-03 DE=-1.46D-02 OVMax= 1.27D-02

 Cycle   5  Pass 1  IDiag  1:
 E= -489.941906292241     Delta-E=       -0.001147262574 Rises=F Damp=F
 DIIS: error= 1.06D-03 at cycle   5 NSaved=   5.
 NSaved= 5 IEnMin= 5 EnMin= -489.941906292241     IErMin= 5 ErrMin= 1.06D-03
 ErrMax= 1.06D-03  0.00D+00 EMaxC= 1.00D-01 BMatC= 6.49D-05 BMatP= 1.18D-03
 IDIUse=3 WtCom= 9.89D-01 WtEn= 1.06D-02
 Coeff-Com:  0.226D-02-0.395D-01-0.897D-01 0.586D-01 0.107D+01
 Coeff-En:   0.000D+00 0.000D+00 0.000D+00 0.000D+00 0.100D+01
 Coeff:      0.224D-02-0.391D-01-0.887D-01 0.580D-01 0.107D+01
 Gap=     0.311 Goal=   None    Shift=    0.000
 RMSDP=7.84D-05 MaxDP=1.81D-03 DE=-1.15D-03 OVMax= 4.58D-03

 Cycle   6  Pass 1  IDiag  1:
 E= -489.942047366420     Delta-E=       -0.000141074178 Rises=F Damp=F
 DIIS: error= 2.42D-04 at cycle   6 NSaved=   6.
 NSaved= 6 IEnMin= 6 EnMin= -489.942047366420     IErMin= 6 ErrMin= 2.42D-04
 ErrMax= 2.42D-04  0.00D+00 EMaxC= 1.00D-01 BMatC= 5.10D-06 BMatP= 6.49D-05
 IDIUse=3 WtCom= 9.98D-01 WtEn= 2.42D-03
 Coeff-Com:  0.986D-03-0.987D-02-0.305D-01-0.555D-01 0.897D-01 0.101D+01
 Coeff-En:   0.000D+00 0.000D+00 0.000D+00 0.000D+00 0.000D+00 0.100D+01
 Coeff:      0.984D-03-0.984D-02-0.304D-01-0.554D-01 0.895D-01 0.101D+01
 Gap=     0.312 Goal=   None    Shift=    0.000
 RMSDP=2.61D-05 MaxDP=5.01D-04 DE=-1.41D-04 OVMax= 1.81D-03

 Cycle   7  Pass 1  IDiag  1:
 E= -489.942062605489     Delta-E=       -0.000015239069 Rises=F Damp=F
 DIIS: error= 1.41D-04 at cycle   7 NSaved=   7.
 NSaved= 7 IEnMin= 7 EnMin= -489.942062605489     IErMin= 7 ErrMin= 1.41D-04
 ErrMax= 1.41D-04  0.00D+00 EMaxC= 1.00D-01 BMatC= 6.25D-07 BMatP= 5.10D-06
 IDIUse=3 WtCom= 9.99D-01 WtEn= 1.41D-03
 Coeff-Com: -0.121D-03 0.426D-02 0.110D-01-0.114D-01-0.114D+00-0.113D+00
 Coeff-Com:  0.122D+01
 Coeff-En:   0.000D+00 0.000D+00 0.000D+00 0.000D+00 0.000D+00 0.000D+00
 Coeff-En:   0.100D+01
 Coeff:     -0.121D-03 0.426D-02 0.110D-01-0.114D-01-0.114D+00-0.113D+00
 Coeff:      0.122D+01
 Gap=     0.312 Goal=   None    Shift=    0.000
 RMSDP=1.11D-05 MaxDP=2.84D-04 DE=-1.52D-05 OVMax= 7.61D-04

 Cycle   8  Pass 1  IDiag  1:
 E= -489.942064689896     Delta-E=       -0.000002084407 Rises=F Damp=F
 DIIS: error= 2.98D-05 at cycle   8 NSaved=   8.
 NSaved= 8 IEnMin= 8 EnMin= -489.942064689896     IErMin= 8 ErrMin= 2.98D-05
 ErrMax= 2.98D-05  0.00D+00 EMaxC= 1.00D-01 BMatC= 3.28D-08 BMatP= 6.25D-07
 IDIUse=1 WtCom= 1.00D+00 WtEn= 0.00D+00
 Coeff-Com: -0.775D-04-0.192D-03-0.364D-04 0.512D-02 0.243D-01-0.260D-01
 Coeff-Com: -0.338D+00 0.133D+01
 Coeff:     -0.775D-04-0.192D-03-0.364D-04 0.512D-02 0.243D-01-0.260D-01
 Coeff:     -0.338D+00 0.133D+01
 Gap=     0.312 Goal=   None    Shift=    0.000
 RMSDP=2.91D-06 MaxDP=7.53D-05 DE=-2.08D-06 OVMax= 1.76D-04

 Cycle   9  Pass 1  IDiag  1:
 E= -489.942064796027     Delta-E=       -0.000000106131 Rises=F Damp=F
 DIIS: error= 6.41D-06 at cycle   9 NSaved=   9.
 NSaved= 9 IEnMin= 9 EnMin= -489.942064796027     IErMin= 9 ErrMin= 6.41D-06
 ErrMax= 6.41D-06  0.00D+00 EMaxC= 1.00D-01 BMatC= 1.63D-09 BMatP= 3.28D-08
 IDIUse=1 WtCom= 1.00D+00 WtEn= 0.00D+00
 Coeff-Com:  0.134D-04-0.143D-03-0.371D-03-0.599D-03 0.168D-02 0.778D-02
 Coeff-Com: -0.352D-02-0.184D+00 0.118D+01
 Coeff:      0.134D-04-0.143D-03-0.371D-03-0.599D-03 0.168D-02 0.778D-02
 Coeff:     -0.352D-02-0.184D+00 0.118D+01
 Gap=     0.312 Goal=   None    Shift=    0.000
 RMSDP=7.02D-07 MaxDP=2.32D-05 DE=-1.06D-07 OVMax= 4.74D-05

 Cycle  10  Pass 1  IDiag  1:
 E= -489.942064802124     Delta-E=       -0.000000006097 Rises=F Damp=F
 DIIS: error= 3.16D-06 at cycle  10 NSaved=  10.
 NSaved=10 IEnMin=10 EnMin= -489.942064802124     IErMin=10 ErrMin= 3.16D-06
 ErrMax= 3.16D-06  0.00D+00 EMaxC= 1.00D-01 BMatC= 2.79D-10 BMatP= 1.63D-09
 IDIUse=1 WtCom= 1.00D+00 WtEn= 0.00D+00
 Coeff-Com:  0.545D-05 0.483D-04 0.114D-03-0.435D-03-0.314D-02 0.722D-03
 Coeff-Com:  0.369D-01-0.928D-01-0.297D+00 0.136D+01
 Coeff:      0.545D-05 0.483D-04 0.114D-03-0.435D-03-0.314D-02 0.722D-03
 Coeff:      0.369D-01-0.928D-01-0.297D+00 0.136D+01
 Gap=     0.312 Goal=   None    Shift=    0.000
 RMSDP=3.51D-07 MaxDP=1.11D-05 DE=-6.10D-09 OVMax= 2.47D-05

 Cycle  11  Pass 1  IDiag  1:
 E= -489.942064803711     Delta-E=       -0.000000001586 Rises=F Damp=F
 DIIS: error= 1.50D-06 at cycle  11 NSaved=  11.
 NSaved=11 IEnMin=11 EnMin= -489.942064803711     IErMin=11 ErrMin= 1.50D-06
 ErrMax= 1.50D-06  0.00D+00 EMaxC= 1.00D-01 BMatC= 6.28D-11 BMatP= 2.79D-10
 IDIUse=1 WtCom= 1.00D+00 WtEn= 0.00D+00
 Coeff-Com: -0.620D-05 0.319D-05 0.120D-04 0.406D-03 0.146D-02-0.162D-02
 Coeff-Com: -0.217D-01 0.922D-01-0.633D-01-0.735D+00 0.173D+01
 Coeff:     -0.620D-05 0.319D-05 0.120D-04 0.406D-03 0.146D-02-0.162D-02
 Coeff:     -0.217D-01 0.922D-01-0.633D-01-0.735D+00 0.173D+01
 Gap=     0.312 Goal=   None    Shift=    0.000
 RMSDP=1.90D-07 MaxDP=4.35D-06 DE=-1.59D-09 OVMax= 1.48D-05

 Cycle  12  Pass 1  IDiag  1:
 E= -489.942064804200     Delta-E=       -0.000000000489 Rises=F Damp=F
 DIIS: error= 5.52D-07 at cycle  12 NSaved=  12.
 NSaved=12 IEnMin=12 EnMin= -489.942064804200     IErMin=12 ErrMin= 5.52D-07
 ErrMax= 5.52D-07  0.00D+00 EMaxC= 1.00D-01 BMatC= 8.71D-12 BMatP= 6.28D-11
 IDIUse=1 WtCom= 1.00D+00 WtEn= 0.00D+00
 Coeff-Com:  0.853D-08-0.921D-05-0.281D-04 0.235D-04 0.400D-03-0.565D-04
 Coeff-Com: -0.346D-02 0.356D-02 0.614D-01-0.123D+00-0.314D+00 0.138D+01
 Coeff:      0.853D-08-0.921D-05-0.281D-04 0.235D-04 0.400D-03-0.565D-04
 Coeff:     -0.346D-02 0.356D-02 0.614D-01-0.123D+00-0.314D+00 0.138D+01
 Gap=     0.312 Goal=   None    Shift=    0.000
 RMSDP=6.63D-08 MaxDP=1.58D-06 DE=-4.89D-10 OVMax= 5.70D-06

 Cycle  13  Pass 1  IDiag  1:
 E= -489.942064804261     Delta-E=       -0.000000000062 Rises=F Damp=F
 DIIS: error= 1.21D-07 at cycle  13 NSaved=  13.
 NSaved=13 IEnMin=13 EnMin= -489.942064804261     IErMin=13 ErrMin= 1.21D-07
 ErrMax= 1.21D-07  0.00D+00 EMaxC= 1.00D-01 BMatC= 7.66D-13 BMatP= 8.71D-12
 IDIUse=1 WtCom= 1.00D+00 WtEn= 0.00D+00
 Coeff-Com:  0.975D-06 0.322D-06 0.217D-06-0.632D-04-0.268D-03 0.166D-03
 Coeff-Com:  0.391D-02-0.144D-01 0.149D-02 0.124D+00-0.215D+00-0.130D+00
 Coeff-Com:  0.123D+01
 Coeff:      0.975D-06 0.322D-06 0.217D-06-0.632D-04-0.268D-03 0.166D-03
 Coeff:      0.391D-02-0.144D-01 0.149D-02 0.124D+00-0.215D+00-0.130D+00
 Coeff:      0.123D+01
 Gap=     0.312 Goal=   None    Shift=    0.000
 RMSDP=2.19D-08 MaxDP=5.33D-07 DE=-6.16D-11 OVMax= 1.45D-06

 Cycle  14  Pass 1  IDiag  1:
 E= -489.942064804266     Delta-E=       -0.000000000005 Rises=F Damp=F
 DIIS: error= 4.19D-08 at cycle  14 NSaved=  14.
 NSaved=14 IEnMin=14 EnMin= -489.942064804266     IErMin=14 ErrMin= 4.19D-08
 ErrMax= 4.19D-08  0.00D+00 EMaxC= 1.00D-01 BMatC= 5.29D-14 BMatP= 7.66D-13
 IDIUse=1 WtCom= 1.00D+00 WtEn= 0.00D+00
 Coeff-Com: -0.286D-06 0.295D-06 0.139D-05 0.177D-04 0.590D-04-0.349D-04
 Coeff-Com: -0.994D-03 0.397D-02-0.301D-02-0.322D-01 0.841D-01-0.323D-01
 Coeff-Com: -0.442D+00 0.142D+01
 Coeff:     -0.286D-06 0.295D-06 0.139D-05 0.177D-04 0.590D-04-0.349D-04
 Coeff:     -0.994D-03 0.397D-02-0.301D-02-0.322D-01 0.841D-01-0.323D-01
 Coeff:     -0.442D+00 0.142D+01
 Gap=     0.312 Goal=   None    Shift=    0.000
 RMSDP=7.34D-09 MaxDP=2.79D-07 DE=-4.66D-12 OVMax= 4.78D-07

 SCF Done:  E(RHF) =  -489.942064804     A.U. after   14 cycles
            NFock= 14  Conv=0.73D-08     -V/T= 2.0005
 KE= 4.896832520435D+02 PE=-1.310555649035D+03 EE= 2.608712328833D+02
 Leave Link  502 at Wed May  4 19:03:41 2022, MaxMem=   754974720 cpu:              12.4 elap:               3.3
 (Enter /opt/cluster/programs/g16-c.01/g16/l801.exe)
 ExpMin= 3.51D-02 ExpMax= 3.74D+05 ExpMxC= 1.18D+03 IAcc=3 IRadAn=         5 AccDes= 0.00D+00
 HarFok:  IExCor=  205 AccDes= 0.00D+00 IRadAn=         5 IDoV=-2 UseB2=F ITyADJ=14
 ICtDFT= 12500011 ScaDFX=  1.000000  1.000000  1.000000  1.000000
 DSYEVD-2 returned Info=          93 IAlg= 4 N=    46 NDim=    46 NE2=    15098045 trying  DSYEV.
 DSYEVD-2 returned Info=          93 IAlg= 4 N=    46 NDim=    46 NE2=    15098045 trying  DSYEV.
 Largest valence mixing into a core orbital is  5.36D-04
 Largest core mixing into a valence orbital is  1.38D-04
 Range of M.O.s used for correlation:     8   142
 NBasis=   142 NAE=    15 NBE=    15 NFC=     7 NFV=     0
 NROrb=    135 NOA=     8 NOB=     8 NVA=   127 NVB=   127

 **** Warning!!: The largest alpha MO coefficient is  0.20312818D+02

 Leave Link  801 at Wed May  4 19:03:41 2022, MaxMem=   754974720 cpu:               0.4 elap:               0.1
 (Enter /opt/cluster/programs/g16-c.01/g16/l906.exe)
 Frozen-core derivative calculation, NFC=   7 NFV=   0.
 FulOut=F Deriv=T AODrv=T NAtomX=     3
   MMem=          74  MDisk=           8 MDiskD=           8
  W3Min=      359970 MinDsk=      723803 NBas6D=         169
 NBas2D=       14809    NTT=       14365    LW2=     3500000
    MDV=   754677671 MDiskM=       22268 NBas2p=       14795
 Fully direct method using O(ONN) memory.
 IMap=   1   2   3   4   5   6   7   8   9  10  11  12  13  14  15
 JobTyp=1 Pass  1:  I=   8 to  15 NPSUse=  4 ParTrn=T ParDer=T DoDerP=T.
 Spin components of T(2) and E(2):
     alpha-alpha T2 =       0.2909515221D-01 E2=     -0.6950530020D-01
     alpha-beta  T2 =       0.1523501216D+00 E2=     -0.3948257634D+00
     beta-beta   T2 =       0.2909515221D-01 E2=     -0.6950530020D-01
 The integrals were generated   1 times.
 ANorm=    0.1100245621D+01
 E2 =    -0.5338363638D+00 EUMP2 =    -0.49047590116809D+03
 Leave Link  906 at Wed May  4 19:03:50 2022, MaxMem=   754974720 cpu:              34.8 elap:               8.7
 (Enter /opt/cluster/programs/g16-c.01/g16/l1002.exe)
 Minotr:  Closed shell wavefunction.
          Computing MP2/KS-MP2 derivatives.
          Using Z-Vector for PSCF gradient.
          Skipping F1 and S1 gradient terms here.
          IDoAtm=111
          Frozen-core window.
          Direct CPHF calculation.
          Differentiating once with respect to electric field.
                with respect to dipole field.
          Differentiating once with respect to nuclear coordinates.
          Using symmetry in CPHF.
          Requested convergence is 1.0D-10 RMS, and 1.0D-09 maximum.
          NewPWx=F KeepS1=T KeepF1=T KeepIn=T MapXYZ=F SortEE=F KeepMc=T.
 Keep R1 ints in memory in symmetry-blocked form, NReq=77616884.
 FoFCou: FMM=F IPFlag=           0 FMFlag=           0 FMFlg1=           0
         NFxFlg=           0 DoJE=F BraDBF=F KetDBF=F FulRan=T
         wScrn=  0.000000 ICntrl=       600 IOpCl=  0 I1Cent=           0 NGrid=           0
         NMat0=    1 NMatS0=  10153 NMatT0=    0 NMatD0=    1 NMtDS0=    0 NMtDT0=    0
 Petite list used in FoFCou.
          MDV=     754974720 using IRadAn=       5.
          Solving linear equations separately, MaxMat=       0.
          There are     1 degrees of freedom in the 1st order CPHF.  IDoFFX=0 NUNeed=     1.
 LinEq1:  Iter=  0 NonCon=     1 RMS=5.00D-03 Max=8.02D-02 NDo=     1
 AX will form     1 AO Fock derivatives at one time.
 LinEq1:  Iter=  1 NonCon=     1 RMS=1.72D-03 Max=2.42D-02 NDo=     1
 LinEq1:  Iter=  2 NonCon=     1 RMS=6.03D-04 Max=6.46D-03 NDo=     1
 LinEq1:  Iter=  3 NonCon=     1 RMS=3.21D-04 Max=5.32D-03 NDo=     1
 LinEq1:  Iter=  4 NonCon=     1 RMS=1.30D-04 Max=1.71D-03 NDo=     1
 LinEq1:  Iter=  5 NonCon=     1 RMS=3.51D-05 Max=4.46D-04 NDo=     1
 LinEq1:  Iter=  6 NonCon=     1 RMS=8.51D-06 Max=7.85D-05 NDo=     1
 LinEq1:  Iter=  7 NonCon=     1 RMS=2.26D-06 Max=3.90D-05 NDo=     1
 LinEq1:  Iter=  8 NonCon=     1 RMS=5.69D-07 Max=5.32D-06 NDo=     1
 LinEq1:  Iter=  9 NonCon=     1 RMS=1.37D-07 Max=1.20D-06 NDo=     1
 LinEq1:  Iter= 10 NonCon=     1 RMS=3.06D-08 Max=3.86D-07 NDo=     1
 LinEq1:  Iter= 11 NonCon=     1 RMS=7.58D-09 Max=8.93D-08 NDo=     1
 LinEq1:  Iter= 12 NonCon=     1 RMS=1.73D-09 Max=2.18D-08 NDo=     1
 LinEq1:  Iter= 13 NonCon=     1 RMS=2.64D-10 Max=2.35D-09 NDo=     1
 LinEq1:  Iter= 14 NonCon=     0 RMS=2.97D-11 Max=2.62D-10 NDo=     1
 Linear equations converged to 1.000D-10 1.000D-09 after    14 iterations.
 End of Minotr F.D. properties file   721 does not exist.
 End of Minotr F.D. properties file   722 does not exist.
 End of Minotr F.D. properties file   788 does not exist.
 Leave Link 1002 at Wed May  4 19:03:54 2022, MaxMem=   754974720 cpu:              15.1 elap:               4.6
 (Enter /opt/cluster/programs/g16-c.01/g16/l601.exe)
 Copying SCF densities to generalized density rwf, IOpCl= 0 IROHF=0.

 **********************************************************************

            Population analysis using the SCF Density.

 **********************************************************************

 Orbital symmetries:
       Occupied  (A') (A') (A') (A') (A') (A") (A') (A') (A') (A')
                 (A') (A") (A') (A") (A')
       Virtual   (A') (A') (A') (A") (A') (A") (A') (A") (A') (A')
                 (A') (A') (A") (A') (A') (A") (A') (A') (A") (A')
                 (A") (A') (A') (A") (A') (A') (A") (A') (A") (A')
                 (A') (A') (A") (A') (A") (A') (A") (A') (A') (A")
                 (A') (A") (A') (A') (A") (A') (A') (A") (A') (A")
                 (A') (A') (A") (A') (A") (A') (A') (A') (A") (A')
                 (A") (A') (A') (A") (A') (A") (A') (A") (A') (A')
                 (A') (A") (A') (A") (A') (A') (A") (A') (A") (A')
                 (A') (A") (A') (A") (A') (A") (A') (A') (A") (A')
                 (A") (A') (A') (A") (A') (A') (A") (A') (A") (A')
                 (A') (A") (A') (A") (A') (A') (A") (A') (A') (A")
                 (A') (A') (A") (A') (A') (A") (A") (A') (A') (A")
                 (A') (A') (A") (A') (A') (A') (A')
 The electronic state is 1-A'.
 Alpha  occ. eigenvalues --  -91.73190 -15.35736 -11.10148  -8.73413  -6.41613
 Alpha  occ. eigenvalues --   -6.41365  -6.41365  -0.99573  -0.77527  -0.41355
 Alpha  occ. eigenvalues --   -0.33383  -0.29879  -0.29873  -0.14061  -0.14015
 Alpha virt. eigenvalues --    0.17200   0.19246   0.23646   0.23722   0.23930
 Alpha virt. eigenvalues --    0.23974   0.24943   0.30262   0.30346   0.31082
 Alpha virt. eigenvalues --    0.35723   0.39440   0.40437   0.41310   0.44115
 Alpha virt. eigenvalues --    0.44126   0.44968   0.54682   0.54692   0.54786
 Alpha virt. eigenvalues --    0.54916   0.56502   0.62554   0.63572   0.63709
 Alpha virt. eigenvalues --    0.73116   0.74050   0.75065   0.77888   0.77893
 Alpha virt. eigenvalues --    0.80684   0.82760   0.83087   0.88213   0.88433
 Alpha virt. eigenvalues --    0.90366   0.94390   0.94400   0.99710   1.03957
 Alpha virt. eigenvalues --    1.04088   1.05412   1.05414   1.12061   1.13879
 Alpha virt. eigenvalues --    1.13884   1.28821   1.28841   1.32096   1.32734
 Alpha virt. eigenvalues --    1.32987   1.35485   1.35816   1.37045   1.39951
 Alpha virt. eigenvalues --    1.40447   1.42629   1.55783   1.60027   1.60067
 Alpha virt. eigenvalues --    1.70235   1.70472   1.79078   1.86498   1.87383
 Alpha virt. eigenvalues --    1.88145   1.89654   2.00993   2.01094   2.06223
 Alpha virt. eigenvalues --    2.14167   2.14472   2.18562   2.28650   2.28654
 Alpha virt. eigenvalues --    2.37009   2.39388   2.41817   2.46817   2.48697
 Alpha virt. eigenvalues --    2.49574   2.50814   2.59586   2.59586   2.61190
 Alpha virt. eigenvalues --    2.62228   2.70237   2.72491   2.72509   2.86362
 Alpha virt. eigenvalues --    3.04608   3.04743   3.19788   3.37326   3.37416
 Alpha virt. eigenvalues --    3.61343   3.64654   3.64670   3.67714   3.67714
 Alpha virt. eigenvalues --    3.81832   3.85537   3.86192   3.90624   3.90834
 Alpha virt. eigenvalues --    4.17346   4.18973   4.30219   4.69856   4.75823
 Alpha virt. eigenvalues --    4.77621   4.94404   5.20209   5.20209   5.45424
 Alpha virt. eigenvalues --    5.45434   5.69671   5.69717   5.86249   5.87301
 Alpha virt. eigenvalues --    6.28163   6.36969   6.37737   6.45134   6.68689
 Alpha virt. eigenvalues --   11.75933  16.62240
          Condensed to atoms (all electrons):
               1          2          3
     1  N    6.809251   0.709970  -0.107392
     2  C    0.709970   5.040637   0.365234
     3  S   -0.107392   0.365234  16.214488
 Mulliken charges:
               1
     1  N   -0.411829
     2  C   -0.115841
     3  S   -0.472330
 Sum of Mulliken charges =  -1.00000
 Mulliken charges with hydrogens summed into heavy atoms:
               1
     1  N   -0.411829
     2  C   -0.115841
     3  S   -0.472330
 Electronic spatial extent (au):  <R**2>=            225.7771
 Charge=             -1.0000 electrons
 Dipole moment (field-independent basis, Debye):
    X=             -0.2804    Y=             -1.5394    Z=              0.0000  Tot=              1.5648
 Quadrupole moment (field-independent basis, Debye-Ang):
   XX=            -29.5328   YY=            -40.9968   ZZ=            -29.2705
   XY=             -1.8834   XZ=              0.0000   YZ=              0.0000
 Traceless Quadrupole moment (field-independent basis, Debye-Ang):
   XX=              3.7339   YY=             -7.7301   ZZ=              3.9962
   XY=             -1.8834   XZ=              0.0000   YZ=              0.0000
 Octapole moment (field-independent basis, Debye-Ang**2):
  XXX=              0.9604  YYY=            -21.1847  ZZZ=              0.0000  XYY=             -2.6410
  XXY=              1.6617  XXZ=              0.0000  XZZ=              0.3299  YZZ=              1.9756
  YYZ=              0.0000  XYZ=              0.0000
 Hexadecapole moment (field-independent basis, Debye-Ang**3):
 XXXX=            -50.3980 YYYY=           -321.6849 ZZZZ=            -45.8037 XXXY=            -16.9329
 XXXZ=              0.0000 YYYX=            -20.3725 YYYZ=              0.0000 ZZZX=              0.0000
 ZZZY=              0.0000 XXYY=            -60.2013 XXZZ=            -16.0318 YYZZ=            -58.8188
 XXYZ=              0.0000 YYXZ=              0.0000 ZZXY=             -5.6145
 N-N= 7.005909930350D+01 E-N=-1.310555648913D+03  KE= 4.896832520435D+02
 Symmetry A'   KE= 4.486859714994D+02
 Symmetry A"   KE= 4.099728054410D+01
 No NMR shielding tensors so no spin-rotation constants.
 Leave Link  601 at Wed May  4 19:03:55 2022, MaxMem=   754974720 cpu:               2.9 elap:               1.0
 (Enter /opt/cluster/programs/g16-c.01/g16/l701.exe)
 ... and contract with generalized density number  2.
 Compute integral first derivatives.
 Leave Link  701 at Wed May  4 19:03:56 2022, MaxMem=   754974720 cpu:               2.3 elap:               0.8
 (Enter /opt/cluster/programs/g16-c.01/g16/l702.exe)
 L702 exits ... SP integral derivatives will be done elsewhere.
 Leave Link  702 at Wed May  4 19:03:56 2022, MaxMem=   754974720 cpu:               0.1 elap:               0.1
 (Enter /opt/cluster/programs/g16-c.01/g16/l703.exe)
 Integral derivatives from FoFJK, PRISM(SPDF).
 Compute integral first derivatives, UseDBF=F ICtDFT=           0.
 Calling FoFJK, ICntrl=  10002127 FMM=F ISym2X=1 I1Cent= 0 IOpClX= 0 NMat=1 NMatS=1 NMatT=0.
 FoFJK:  IHMeth= 1 ICntrl=10002127 DoSepK=F KAlg= 0 I1Cent=           0 FoldK=F
 IRaf=         0 NMat=       1 IRICut=       1 DoRegI=T DoRafI=F ISym2E= 1 IDoP0=0 IntGTp=1.
 FoFCou: FMM=F IPFlag=           0 FMFlag=      100000 FMFlg1=         800
         NFxFlg=           0 DoJE=F BraDBF=F KetDBF=F FulRan=T
         wScrn=  0.000000 ICntrl=  10002127 IOpCl=  0 I1Cent=           0 NGrid=           0
         NMat0=    1 NMatS0=      1 NMatT0=    0 NMatD0=    1 NMtDS0=    0 NMtDT0=    0
 Petite list used in FoFCou.
 Leave Link  703 at Wed May  4 19:04:00 2022, MaxMem=   754974720 cpu:              15.7 elap:               4.4
 (Enter /opt/cluster/programs/g16-c.01/g16/l716.exe)
 Dipole        =-8.71409661D-02-5.77670827D-01 0.00000000D+00
 ***** Axes restored to original set *****
 -------------------------------------------------------------------
 Center     Atomic                   Forces (Hartrees/Bohr)
 Number     Number              X              Y              Z
 -------------------------------------------------------------------
      1        7          -0.008426299   -0.000000000   -0.000956721
      2        6           0.014270532   -0.000000000   -0.000812066
      3       16          -0.005844233   -0.000000000    0.001768788
 -------------------------------------------------------------------
 Cartesian Forces:  Max     0.014270532 RMS     0.005902062
 Leave Link  716 at Wed May  4 19:04:01 2022, MaxMem=   754974720 cpu:               0.3 elap:               0.2
 (Enter /opt/cluster/programs/g16-c.01/g16/l103.exe)

 GradGradGradGradGradGradGradGradGradGradGradGradGradGradGradGradGradGrad
 Berny optimization.
 FormGI is forming the generalized inverse of G from B-inverse, IUseBI=4.
 Internal  Forces:  Max     0.009493190 RMS     0.006030757
 Search for a local minimum.
 Step number   1 out of a maximum of   20
 All quantities printed in internal units (Hartrees-Bohrs-Radians)
 RMS Force = .63420D-03 SwitMx=.10000D-02 MixMth= 2
 Mixed Optimization -- En-DIIS/RFO-DIIS
 Second derivative matrix not updated -- first step.
 The second derivative matrix:
                          R1        R2        A1        A2        A3
           R1           1.08759
           R2           0.00000   0.41030
           A1           0.00000   0.00000   0.25000
           A2           0.00000   0.00000   0.00000   0.25000
           A3           0.00000   0.00000   0.00000   0.00000   0.25000
 ITU=  0
     Eigenvalues ---    0.41030   1.087591000.000001000.000001000.00000
 RFO step:  Lambda=-2.53184880D-06 EMin= 4.10299174D-01
 Linear search not attempted -- first point.
 Iteration  1 RMS(Cart)=  0.00094204 RMS(Int)=  0.00000000
 Iteration  2 RMS(Cart)=  0.00000000 RMS(Int)=  0.00000000
 Iteration  1 RMS(Cart)=  0.00000000 RMS(Int)=  0.00000000
 ITry= 1 IFail=0 DXMaxC= 1.63D-03 DCOld= 1.00D+10 DXMaxT= 3.00D-01 DXLimC= 3.00D+00 Rises=F
 ClnCor:  largest displacement from symmetrization is 1.78D-15 for atom     1.
 Variable       Old X    -DE/DX   Delta X   Delta X   Delta X     New X
                                 (Linear)    (Quad)   (Total)
    R1        2.25323   0.00096   0.00000   0.00088   0.00088   2.25411
    R2        3.13877   0.00083   0.00000   0.00203   0.00203   3.14080
    A1        2.98451   0.00949   0.00000   0.00000   0.00000   2.98451
    A2        3.14159  -0.00000   0.00000   0.00000   0.00000   3.14159
    A3        2.98451   0.00949   0.00000   0.00000   0.00000   2.98451
         Item               Value     Threshold  Converged?
 Maximum Force            0.000957     0.000450     NO 
 RMS     Force            0.000634     0.000300     NO 
 Maximum Displacement     0.001632     0.001800     YES
 RMS     Displacement     0.000942     0.001200     YES
 Predicted change in Energy=-1.265924D-06
 Lowest energy point so far.  Saving SCF results.
 GradGradGradGradGradGradGradGradGradGradGradGradGradGradGradGradGradGrad

 Leave Link  103 at Wed May  4 19:04:01 2022, MaxMem=   754974720 cpu:               0.5 elap:               0.3
 (Enter /opt/cluster/programs/g16-c.01/g16/l202.exe)
                          Input orientation:                          
 ---------------------------------------------------------------------
 Center     Atomic      Atomic             Coordinates (Angstroms)
 Number     Number       Type             X           Y           Z
 ---------------------------------------------------------------------
      1          7           0       -0.000047    0.000000   -1.821608
      2          6           0       -0.000055    0.000000   -0.628785
      3         16           0        0.259935    0.000000    1.012796
 ---------------------------------------------------------------------
                    Distance matrix (angstroms):
                    1          2          3
     1  N    0.000000
     2  C    1.192822   0.000000
     3  S    2.846302   1.662042   0.000000
 Stoichiometry    CNS(1-)
 Framework group  CS[SG(CNS)]
 Deg. of freedom     3
 Full point group                 CS      NOp   2
 RotChk:  IX=0 Diff= 4.63D-05
 Largest Abelian subgroup         CS      NOp   2
 Largest concise Abelian subgroup C1      NOp   1
                         Standard orientation:                         
 ---------------------------------------------------------------------
 Center     Atomic      Atomic             Coordinates (Angstroms)
 Number     Number       Type             X           Y           Z
 ---------------------------------------------------------------------
      1          7           0        0.269797    1.796122   -0.000000
      2          6           0       -0.000000    0.634212    0.000000
      3         16           0       -0.118036   -1.023633   -0.000000
 ---------------------------------------------------------------------
 Rotational constants (GHZ):        4811.6879196           5.9552891           5.9479275
 Leave Link  202 at Wed May  4 19:04:01 2022, MaxMem=   754974720 cpu:               0.1 elap:               0.1
 (Enter /opt/cluster/programs/g16-c.01/g16/l301.exe)
 Standard basis: Aug-CC-pVTZ (5D, 7F)
 Ernie: Thresh=  0.10000D-02 Tol=  0.10000D-05 Strict=F.
 Ernie:  19 primitive shells out of 124 were deleted.
 There are   114 symmetry adapted cartesian basis functions of A'  symmetry.
 There are    55 symmetry adapted cartesian basis functions of A"  symmetry.
 There are    93 symmetry adapted basis functions of A'  symmetry.
 There are    49 symmetry adapted basis functions of A"  symmetry.
   142 basis functions,   258 primitive gaussians,   169 cartesian basis functions
    15 alpha electrons       15 beta electrons
       nuclear repulsion energy        70.0208224223 Hartrees.
 IExCor=    0 DFT=F Ex=HF Corr=None ExCW=0 ScaHFX=  1.000000
 ScaDFX=  1.000000  1.000000  1.000000  1.000000 ScalE2=  1.000000  1.000000
 IRadAn=      5 IRanWt=     -1 IRanGd=            0 ICorTp=0 IEmpDi=  4
 NAtoms=    3 NActive=    3 NUniq=    3 SFac= 1.00D+00 NAtFMM=   60 NAOKFM=F Big=F
 Integral buffers will be    131072 words long.
 Raffenetti 1 integral format.
 Two-electron integral symmetry is turned on.
 Leave Link  301 at Wed May  4 19:04:01 2022, MaxMem=   754974720 cpu:               0.4 elap:               0.2
 (Enter /opt/cluster/programs/g16-c.01/g16/l302.exe)
 NPDir=0 NMtPBC=     1 NCelOv=     1 NCel=       1 NClECP=     1 NCelD=      1
         NCelK=      1 NCelE2=     1 NClLst=     1 CellRange=     0.0.
 One-electron integrals computed using PRISM.
 One-electron integral symmetry used in STVInt
 NBasis=   142 RedAO= T EigKep=  1.03D-04  NBF=    93    49
 NBsUse=   142 1.00D-06 EigRej= -1.00D+00 NBFU=    93    49
 Leave Link  302 at Wed May  4 19:04:01 2022, MaxMem=   754974720 cpu:               0.7 elap:               0.2
 (Enter /opt/cluster/programs/g16-c.01/g16/l303.exe)
 DipDrv:  MaxL=1.
 Leave Link  303 at Wed May  4 19:04:02 2022, MaxMem=   754974720 cpu:               0.4 elap:               0.1
 (Enter /opt/cluster/programs/g16-c.01/g16/l401.exe)
 Initial guess from the checkpoint file:  "gaussian_2_scn.chk"
 B after Tr=    -0.000000   -0.000000    0.000000
         Rot=    1.000000   -0.000000   -0.000000   -0.000017 Ang=  -0.00 deg.
 Guess basis will be translated and rotated to current coordinates.
 JPrj=2 DoOrth=T DoCkMO=T.
 Initial guess orbital symmetries:
       Occupied  (A') (A') (A') (A') (A') (A") (A') (A') (A') (A')
                 (A') (A") (A') (A") (A')
       Virtual   (A') (A') (A') (A") (A') (A") (A') (A") (A') (A')
                 (A') (A') (A") (A') (A') (A") (A') (A') (A") (A')
                 (A") (A') (A') (A") (A') (A') (A") (A') (A") (A')
                 (A') (A') (A") (A') (A") (A') (A") (A') (A') (A")
                 (A') (A") (A') (A') (A") (A') (A') (A") (A') (A")
                 (A') (A') (A") (A') (A") (A') (A') (A') (A") (A')
                 (A") (A') (A') (A") (A') (A") (A') (A") (A') (A')
                 (A') (A") (A') (A") (A') (A') (A") (A') (A") (A')
                 (A') (A") (A') (A") (A') (A") (A') (A') (A") (A')
                 (A") (A') (A') (A") (A') (A') (A") (A') (A") (A')
                 (A') (A") (A') (A") (A') (A') (A") (A') (A') (A")
                 (A') (A') (A") (A') (A') (A") (A") (A') (A') (A")
                 (A') (A') (A") (A') (A') (A') (A')
 The electronic state of the initial guess is 1-A'.
 Leave Link  401 at Wed May  4 19:04:02 2022, MaxMem=   754974720 cpu:               1.0 elap:               0.3
 (Enter /opt/cluster/programs/g16-c.01/g16/l502.exe)
 Keep R1 ints in memory in symmetry-blocked form, NReq=77616006.
 FoFCou: FMM=F IPFlag=           0 FMFlag=           0 FMFlg1=           0
         NFxFlg=           0 DoJE=F BraDBF=F KetDBF=F FulRan=T
         wScrn=  0.000000 ICntrl=       600 IOpCl=  0 I1Cent=           0 NGrid=           0
         NMat0=    1 NMatS0=  10153 NMatT0=    0 NMatD0=    1 NMtDS0=    0 NMtDT0=    0
 Petite list used in FoFCou.
 Closed shell SCF:
 Using DIIS extrapolation, IDIIS=  1040.
 NGot=   754974720 LenX=   728846748 LenY=   728817746
 Requested convergence on RMS density matrix=1.00D-08 within 200 cycles.
 Requested convergence on MAX density matrix=1.00D-06.
 Requested convergence on             energy=1.00D-06.
 No special actions if energy rises.

 Cycle   1  Pass 1  IDiag  1:
 E= -489.941987735752    
 DIIS: error= 6.32D-05 at cycle   1 NSaved=   1.
 NSaved= 1 IEnMin= 1 EnMin= -489.941987735752     IErMin= 1 ErrMin= 6.32D-05
 ErrMax= 6.32D-05  0.00D+00 EMaxC= 1.00D-01 BMatC= 4.42D-07 BMatP= 4.42D-07
 IDIUse=1 WtCom= 1.00D+00 WtEn= 0.00D+00
 Coeff-Com:  0.100D+01
 Coeff:      0.100D+01
 Gap=     0.312 Goal=   None    Shift=    0.000
 RMSDP=7.02D-06 MaxDP=2.02D-04              OVMax= 2.18D-04

 Cycle   2  Pass 1  IDiag  1:
 E= -489.941988179222     Delta-E=       -0.000000443470 Rises=F Damp=F
 DIIS: error= 3.58D-05 at cycle   2 NSaved=   2.
 NSaved= 2 IEnMin= 2 EnMin= -489.941988179222     IErMin= 2 ErrMin= 3.58D-05
 ErrMax= 3.58D-05  0.00D+00 EMaxC= 1.00D-01 BMatC= 5.62D-08 BMatP= 4.42D-07
 IDIUse=1 WtCom= 1.00D+00 WtEn= 0.00D+00
 Coeff-Com:  0.139D+00 0.861D+00
 Coeff:      0.139D+00 0.861D+00
 Gap=     0.312 Goal=   None    Shift=    0.000
 RMSDP=1.87D-06 MaxDP=5.19D-05 DE=-4.43D-07 OVMax= 1.18D-04

 Cycle   3  Pass 1  IDiag  1:
 E= -489.941988240118     Delta-E=       -0.000000060895 Rises=F Damp=F
 DIIS: error= 1.65D-05 at cycle   3 NSaved=   3.
 NSaved= 3 IEnMin= 3 EnMin= -489.941988240118     IErMin= 3 ErrMin= 1.65D-05
 ErrMax= 1.65D-05  0.00D+00 EMaxC= 1.00D-01 BMatC= 1.16D-08 BMatP= 5.62D-08
 IDIUse=1 WtCom= 1.00D+00 WtEn= 0.00D+00
 Coeff-Com: -0.672D-01 0.219D+00 0.848D+00
 Coeff:     -0.672D-01 0.219D+00 0.848D+00
 Gap=     0.312 Goal=   None    Shift=    0.000
 RMSDP=5.91D-07 MaxDP=1.39D-05 DE=-6.09D-08 OVMax= 4.86D-05

 Cycle   4  Pass 1  IDiag  1:
 E= -489.941988255587     Delta-E=       -0.000000015469 Rises=F Damp=F
 DIIS: error= 5.20D-06 at cycle   4 NSaved=   4.
 NSaved= 4 IEnMin= 4 EnMin= -489.941988255587     IErMin= 4 ErrMin= 5.20D-06
 ErrMax= 5.20D-06  0.00D+00 EMaxC= 1.00D-01 BMatC= 1.65D-09 BMatP= 1.16D-08
 IDIUse=1 WtCom= 1.00D+00 WtEn= 0.00D+00
 Coeff-Com: -0.312D-01-0.221D-01 0.264D+00 0.789D+00
 Coeff:     -0.312D-01-0.221D-01 0.264D+00 0.789D+00
 Gap=     0.312 Goal=   None    Shift=    0.000
 RMSDP=3.08D-07 MaxDP=6.96D-06 DE=-1.55D-08 OVMax= 1.81D-05

 Cycle   5  Pass 1  IDiag  1:
 E= -489.941988257889     Delta-E=       -0.000000002302 Rises=F Damp=F
 DIIS: error= 2.39D-06 at cycle   5 NSaved=   5.
 NSaved= 5 IEnMin= 5 EnMin= -489.941988257889     IErMin= 5 ErrMin= 2.39D-06
 ErrMax= 2.39D-06  0.00D+00 EMaxC= 1.00D-01 BMatC= 2.18D-10 BMatP= 1.65D-09
 IDIUse=1 WtCom= 1.00D+00 WtEn= 0.00D+00
 Coeff-Com:  0.852D-02-0.532D-01-0.108D+00 0.136D+00 0.102D+01
 Coeff:      0.852D-02-0.532D-01-0.108D+00 0.136D+00 0.102D+01
 Gap=     0.312 Goal=   None    Shift=    0.000
 RMSDP=1.80D-07 MaxDP=5.64D-06 DE=-2.30D-09 OVMax= 1.13D-05

 Cycle   6  Pass 1  IDiag  1:
 E= -489.941988258378     Delta-E=       -0.000000000489 Rises=F Damp=F
 DIIS: error= 4.70D-07 at cycle   6 NSaved=   6.
 NSaved= 6 IEnMin= 6 EnMin= -489.941988258378     IErMin= 6 ErrMin= 4.70D-07
 ErrMax= 4.70D-07  0.00D+00 EMaxC= 1.00D-01 BMatC= 1.45D-11 BMatP= 2.18D-10
 IDIUse=1 WtCom= 1.00D+00 WtEn= 0.00D+00
 Coeff-Com:  0.310D-02 0.106D-02-0.276D-01-0.638D-01 0.395D-01 0.105D+01
 Coeff:      0.310D-02 0.106D-02-0.276D-01-0.638D-01 0.395D-01 0.105D+01
 Gap=     0.312 Goal=   None    Shift=    0.000
 RMSDP=4.39D-08 MaxDP=9.78D-07 DE=-4.89D-10 OVMax= 3.24D-06

 Cycle   7  Pass 1  IDiag  1:
 E= -489.941988258422     Delta-E=       -0.000000000045 Rises=F Damp=F
 DIIS: error= 2.92D-07 at cycle   7 NSaved=   7.
 NSaved= 7 IEnMin= 7 EnMin= -489.941988258422     IErMin= 7 ErrMin= 2.92D-07
 ErrMax= 2.92D-07  0.00D+00 EMaxC= 1.00D-01 BMatC= 2.01D-12 BMatP= 1.45D-11
 IDIUse=1 WtCom= 1.00D+00 WtEn= 0.00D+00
 Coeff-Com: -0.112D-02 0.726D-02 0.116D-01-0.970D-02-0.151D+00-0.100D-01
 Coeff-Com:  0.115D+01
 Coeff:     -0.112D-02 0.726D-02 0.116D-01-0.970D-02-0.151D+00-0.100D-01
 Coeff:      0.115D+01
 Gap=     0.312 Goal=   None    Shift=    0.000
 RMSDP=1.89D-08 MaxDP=4.22D-07 DE=-4.48D-11 OVMax= 1.43D-06

 Cycle   8  Pass 1  IDiag  1:
 E= -489.941988258430     Delta-E=       -0.000000000008 Rises=F Damp=F
 DIIS: error= 5.06D-08 at cycle   8 NSaved=   8.
 NSaved= 8 IEnMin= 8 EnMin= -489.941988258430     IErMin= 8 ErrMin= 5.06D-08
 ErrMax= 5.06D-08  0.00D+00 EMaxC= 1.00D-01 BMatC= 6.27D-14 BMatP= 2.01D-12
 IDIUse=1 WtCom= 1.00D+00 WtEn= 0.00D+00
 Coeff-Com: -0.723D-04-0.304D-03 0.387D-03 0.417D-02 0.272D-02-0.257D-01
 Coeff-Com: -0.125D+00 0.114D+01
 Coeff:     -0.723D-04-0.304D-03 0.387D-03 0.417D-02 0.272D-02-0.257D-01
 Coeff:     -0.125D+00 0.114D+01
 Gap=     0.312 Goal=   None    Shift=    0.000
 RMSDP=4.04D-09 MaxDP=1.17D-07 DE=-7.96D-12 OVMax= 2.49D-07

 SCF Done:  E(RHF) =  -489.941988258     A.U. after    8 cycles
            NFock=  8  Conv=0.40D-08     -V/T= 2.0005
 KE= 4.896785565573D+02 PE=-1.310473194619D+03 EE= 2.608318273812D+02
 Leave Link  502 at Wed May  4 19:04:05 2022, MaxMem=   754974720 cpu:              11.7 elap:               3.1
 (Enter /opt/cluster/programs/g16-c.01/g16/l801.exe)
 ExpMin= 3.51D-02 ExpMax= 3.74D+05 ExpMxC= 1.18D+03 IAcc=3 IRadAn=         5 AccDes= 0.00D+00
 HarFok:  IExCor=  205 AccDes= 0.00D+00 IRadAn=         5 IDoV=-2 UseB2=F ITyADJ=14
 ICtDFT= 12500011 ScaDFX=  1.000000  1.000000  1.000000  1.000000
 DSYEVD-2 returned Info=          93 IAlg= 4 N=    46 NDim=    46 NE2=    15098045 trying  DSYEV.
 Largest valence mixing into a core orbital is  5.36D-04
 Largest core mixing into a valence orbital is  1.39D-04
 Range of M.O.s used for correlation:     8   142
 NBasis=   142 NAE=    15 NBE=    15 NFC=     7 NFV=     0
 NROrb=    135 NOA=     8 NOB=     8 NVA=   127 NVB=   127

 **** Warning!!: The largest alpha MO coefficient is  0.20328959D+02

 Leave Link  801 at Wed May  4 19:04:05 2022, MaxMem=   754974720 cpu:               0.4 elap:               0.1
 (Enter /opt/cluster/programs/g16-c.01/g16/l906.exe)
 Frozen-core derivative calculation, NFC=   7 NFV=   0.
 FulOut=F Deriv=T AODrv=T NAtomX=     3
   MMem=          74  MDisk=           8 MDiskD=           8
  W3Min=      359970 MinDsk=      723803 NBas6D=         169
 NBas2D=       14809    NTT=       14365    LW2=     3500000
    MDV=   754677671 MDiskM=       22268 NBas2p=       14795
 Fully direct method using O(ONN) memory.
 IMap=   1   2   3   4   5   6   7   8   9  10  11  12  13  14  15
 JobTyp=1 Pass  1:  I=   8 to  15 NPSUse=  4 ParTrn=T ParDer=T DoDerP=T.
 Spin components of T(2) and E(2):
     alpha-alpha T2 =       0.2910896672D-01 E2=     -0.6951226151D-01
     alpha-beta  T2 =       0.1524326116D+00 E2=     -0.3948898172D+00
     beta-beta   T2 =       0.2910896672D-01 E2=     -0.6951226151D-01
 The integrals were generated   1 times.
 ANorm=    0.1100295663D+01
 E2 =    -0.5339143402D+00 EUMP2 =    -0.49047590259865D+03
 Leave Link  906 at Wed May  4 19:04:13 2022, MaxMem=   754974720 cpu:              30.9 elap:               7.7
 (Enter /opt/cluster/programs/g16-c.01/g16/l1002.exe)
 Minotr:  Closed shell wavefunction.
          Computing MP2/KS-MP2 derivatives.
          Using Z-Vector for PSCF gradient.
          Skipping F1 and S1 gradient terms here.
          IDoAtm=111
          Frozen-core window.
          Direct CPHF calculation.
          Differentiating once with respect to electric field.
                with respect to dipole field.
          Differentiating once with respect to nuclear coordinates.
          Using symmetry in CPHF.
          Requested convergence is 1.0D-10 RMS, and 1.0D-09 maximum.
          NewPWx=F KeepS1=T KeepF1=T KeepIn=T MapXYZ=F SortEE=F KeepMc=T.
 Keep R1 ints in memory in symmetry-blocked form, NReq=77616884.
 FoFCou: FMM=F IPFlag=           0 FMFlag=           0 FMFlg1=           0
         NFxFlg=           0 DoJE=F BraDBF=F KetDBF=F FulRan=T
         wScrn=  0.000000 ICntrl=       600 IOpCl=  0 I1Cent=           0 NGrid=           0
         NMat0=    1 NMatS0=  10153 NMatT0=    0 NMatD0=    1 NMtDS0=    0 NMtDT0=    0
 Petite list used in FoFCou.
          MDV=     754974720 using IRadAn=       5.
          Solving linear equations separately, MaxMat=       0.
          There are     1 degrees of freedom in the 1st order CPHF.  IDoFFX=0 NUNeed=     1.
 LinEq1:  Iter=  0 NonCon=     1 RMS=5.01D-03 Max=8.03D-02 NDo=     1
 AX will form     1 AO Fock derivatives at one time.
 LinEq1:  Iter=  1 NonCon=     1 RMS=1.72D-03 Max=2.43D-02 NDo=     1
 LinEq1:  Iter=  2 NonCon=     1 RMS=6.04D-04 Max=6.45D-03 NDo=     1
 LinEq1:  Iter=  3 NonCon=     1 RMS=3.22D-04 Max=5.35D-03 NDo=     1
 LinEq1:  Iter=  4 NonCon=     1 RMS=1.30D-04 Max=1.71D-03 NDo=     1
 LinEq1:  Iter=  5 NonCon=     1 RMS=3.52D-05 Max=4.48D-04 NDo=     1
 LinEq1:  Iter=  6 NonCon=     1 RMS=8.54D-06 Max=7.89D-05 NDo=     1
 LinEq1:  Iter=  7 NonCon=     1 RMS=2.27D-06 Max=3.91D-05 NDo=     1
 LinEq1:  Iter=  8 NonCon=     1 RMS=5.72D-07 Max=5.33D-06 NDo=     1
 LinEq1:  Iter=  9 NonCon=     1 RMS=1.38D-07 Max=1.21D-06 NDo=     1
 LinEq1:  Iter= 10 NonCon=     1 RMS=3.07D-08 Max=3.87D-07 NDo=     1
 LinEq1:  Iter= 11 NonCon=     1 RMS=7.61D-09 Max=8.94D-08 NDo=     1
 LinEq1:  Iter= 12 NonCon=     1 RMS=1.74D-09 Max=2.19D-08 NDo=     1
 LinEq1:  Iter= 13 NonCon=     1 RMS=2.65D-10 Max=2.36D-09 NDo=     1
 LinEq1:  Iter= 14 NonCon=     0 RMS=2.99D-11 Max=2.64D-10 NDo=     1
 Linear equations converged to 1.000D-10 1.000D-09 after    14 iterations.
 End of Minotr F.D. properties file   721 does not exist.
 End of Minotr F.D. properties file   722 does not exist.
 End of Minotr F.D. properties file   788 does not exist.
 Leave Link 1002 at Wed May  4 19:04:16 2022, MaxMem=   754974720 cpu:              13.1 elap:               3.5
 (Enter /opt/cluster/programs/g16-c.01/g16/l701.exe)
 ... and contract with generalized density number  2.
 Compute integral first derivatives.
 Leave Link  701 at Wed May  4 19:04:17 2022, MaxMem=   754974720 cpu:               0.9 elap:               0.3
 (Enter /opt/cluster/programs/g16-c.01/g16/l702.exe)
 L702 exits ... SP integral derivatives will be done elsewhere.
 Leave Link  702 at Wed May  4 19:04:17 2022, MaxMem=   754974720 cpu:               0.1 elap:               0.0
 (Enter /opt/cluster/programs/g16-c.01/g16/l703.exe)
 Integral derivatives from FoFJK, PRISM(SPDF).
 Compute integral first derivatives, UseDBF=F ICtDFT=           0.
 Calling FoFJK, ICntrl=  10002127 FMM=F ISym2X=1 I1Cent= 0 IOpClX= 0 NMat=1 NMatS=1 NMatT=0.
 FoFJK:  IHMeth= 1 ICntrl=10002127 DoSepK=F KAlg= 0 I1Cent=           0 FoldK=F
 IRaf=         0 NMat=       1 IRICut=       1 DoRegI=T DoRafI=F ISym2E= 1 IDoP0=0 IntGTp=1.
 FoFCou: FMM=F IPFlag=           0 FMFlag=      100000 FMFlg1=         800
         NFxFlg=           0 DoJE=F BraDBF=F KetDBF=F FulRan=T
         wScrn=  0.000000 ICntrl=  10002127 IOpCl=  0 I1Cent=           0 NGrid=           0
         NMat0=    1 NMatS0=      1 NMatT0=    0 NMatD0=    1 NMtDS0=    0 NMtDT0=    0
 Petite list used in FoFCou.
 Leave Link  703 at Wed May  4 19:04:21 2022, MaxMem=   754974720 cpu:              15.1 elap:               3.9
 (Enter /opt/cluster/programs/g16-c.01/g16/l716.exe)
 Dipole        =-8.70179858D-02-5.77060272D-01 6.58086261D-31
 ***** Axes restored to original set *****
 -------------------------------------------------------------------
 Center     Atomic                   Forces (Hartrees/Bohr)
 Number     Number              X              Y              Z
 -------------------------------------------------------------------
      1        7          -0.008405571    0.000000000   -0.000064024
      2        6           0.014342442   -0.000000000   -0.001014783
      3       16          -0.005936871    0.000000000    0.001078807
 -------------------------------------------------------------------
 Cartesian Forces:  Max     0.014342442 RMS     0.005904832
 Leave Link  716 at Wed May  4 19:04:21 2022, MaxMem=   754974720 cpu:               0.2 elap:               0.1
 (Enter /opt/cluster/programs/g16-c.01/g16/l103.exe)

 GradGradGradGradGradGradGradGradGradGradGradGradGradGradGradGradGradGrad
 Berny optimization.
 Using GEDIIS/GDIIS optimizer.
 FormGI is forming the generalized inverse of G from B-inverse, IUseBI=4.
 Internal  Forces:  Max     0.009473525 RMS     0.005991964
 Search for a local minimum.
 Step number   2 out of a maximum of   20
 All quantities printed in internal units (Hartrees-Bohrs-Radians)
 RMS Force = .75524D-04 SwitMx=.10000D-02 MixMth= 2
 Mixed Optimization -- En-DIIS/RFO-DIIS
 Swapping is turned off.
 Update second derivatives using D2CorX and points    1    2
 DE= -1.43D-06 DEPred=-1.27D-06 R= 1.13D+00
 TightC=F SS=  1.41D+00  RLast= 2.21D-03 DXNew= 5.0454D-01 6.6363D-03
 Trust test= 1.13D+00 RLast= 2.21D-03 DXMaxT set to 3.00D-01
 The second derivative matrix:
                          R1        R2        A1        A2        A3
           R1           1.08870
           R2          -0.03200   0.35675
           A1           0.00799   0.00623   0.25018
           A2           0.00000   0.00000  -0.00000   0.25000
           A3           0.00799   0.00623   0.00018  -0.00000   0.25018
 ITU=  1  0
     Eigenvalues ---    0.35536   1.090101000.000001000.000001000.00000
 En-DIIS/RFO-DIIS/Sim-DIIS IScMMF=       -3 using points:     2    1
 RFO step:  Lambda=-2.37331215D-07.
 NNeg= 0 NGDIIS= 2 SimSw=  2.50D-03 Rises=F DC= -1.43D-06 SmlDif=  1.00D-05
 NRisDI= 0 DoIntr=F SqrtH=F CThrHd= 10.0 CDAdj=  3.0
 RMS Error=  0.1772521959D-03 NUsed= 2 OKEnD=F EnDIS=F
 InvSVX:  RCond= 1.22D-06 Info=           0 Equed=N FErr=  1.37D-15 BErr=  4.73D-17
 DidBck=F Rises=F RFO-DIIS coefs:    1.17432   -0.17432
 Iteration  1 RMS(Cart)=  0.00015677 RMS(Int)=  0.00000299
 Iteration  2 RMS(Cart)=  0.00000000 RMS(Int)=  0.00000299
 Iteration  1 RMS(Cart)=  0.00000114 RMS(Int)=  0.00000150
 Iteration  2 RMS(Cart)=  0.00000057 RMS(Int)=  0.00000167
 ITry= 1 IFail=0 DXMaxC= 2.81D-04 DCOld= 1.00D+10 DXMaxT= 3.00D-01 DXLimC= 3.00D+00 Rises=F
 ClnCor:  largest displacement from symmetrization is 1.33D-15 for atom     1.
 Variable       Old X    -DE/DX   Delta X   Delta X   Delta X     New X
                                 (Linear)    (Quad)   (Total)
    R1        2.25411   0.00006   0.00015  -0.00008   0.00007   2.25418
    R2        3.14080   0.00014   0.00035   0.00004   0.00039   3.14119
    A1        2.98451   0.00947   0.00000   0.00001   0.00000   2.98451
    A2        3.14159   0.00000  -0.00000   0.00000   0.00000   3.14159
    A3        2.98451   0.00947  -0.00000   0.00000   0.00000   2.98451
         Item               Value     Threshold  Converged?
 Maximum Force            0.000137     0.000450     YES
 RMS     Force            0.000076     0.000300     YES
 Maximum Displacement     0.000281     0.001800     YES
 RMS     Displacement     0.000157     0.001200     YES
 Predicted change in Energy=-5.133931D-08
 Optimization completed.
    -- Stationary point found.
                           ----------------------------
                           !   Optimized Parameters   !
                           ! (Angstroms and Degrees)  !
 --------------------------                            --------------------------
 ! Name  Definition              Value          Derivative Info.                !
 --------------------------------------------------------------------------------
 ! R1    R(1,2)                  1.1928         -DE/DX =    0.0001              !
 ! R2    R(2,3)                  1.662          -DE/DX =    0.0001              !
 ! A1    L(1,2,3,-2,-1)        171.0            -DE/DX =    0.0095              !
 ! A2    L(1,2,3,-1,-2)        180.0            -DE/DX =    0.0                 !
 ! A3    A(1,2,3)              171.0            -DE/DX =    0.0095              !
 --------------------------------------------------------------------------------
 Lowest energy point so far.  Saving SCF results.
 Largest change from initial coordinates is atom    1       0.001 Angstoms.
 GradGradGradGradGradGradGradGradGradGradGradGradGradGradGradGradGradGrad

 Leave Link  103 at Wed May  4 19:04:21 2022, MaxMem=   754974720 cpu:               0.0 elap:               0.0
 (Enter /opt/cluster/programs/g16-c.01/g16/l202.exe)
                          Input orientation:                          
 ---------------------------------------------------------------------
 Center     Atomic      Atomic             Coordinates (Angstroms)
 Number     Number       Type             X           Y           Z
 ---------------------------------------------------------------------
      1          7           0       -0.000047   -0.000000   -1.821608
      2          6           0       -0.000055    0.000000   -0.628785
      3         16           0        0.259935   -0.000000    1.012796
 ---------------------------------------------------------------------
                    Distance matrix (angstroms):
                    1          2          3
     1  N    0.000000
     2  C    1.192822   0.000000
     3  S    2.846302   1.662042   0.000000
 Stoichiometry    CNS(1-)
 Framework group  CS[SG(CNS)]
 Deg. of freedom     3
 Full point group                 CS      NOp   2
 RotChk:  IX=0 Diff= 2.11D-13
 Largest Abelian subgroup         CS      NOp   2
 Largest concise Abelian subgroup C1      NOp   1
                         Standard orientation:                         
 ---------------------------------------------------------------------
 Center     Atomic      Atomic             Coordinates (Angstroms)
 Number     Number       Type             X           Y           Z
 ---------------------------------------------------------------------
      1          7           0        0.269797    1.796122    0.000000
      2          6           0        0.000000    0.634212    0.000000
      3         16           0       -0.118036   -1.023633   -0.000000
 ---------------------------------------------------------------------
 Rotational constants (GHZ):        4811.6879196           5.9552891           5.9479275
 Leave Link  202 at Wed May  4 19:04:21 2022, MaxMem=   754974720 cpu:               0.1 elap:               0.0
 (Enter /opt/cluster/programs/g16-c.01/g16/l601.exe)
 Copying SCF densities to generalized density rwf, IOpCl= 0 IROHF=0.

 **********************************************************************

            Population analysis using the SCF Density.

 **********************************************************************

 Orbital symmetries:
       Occupied  (A') (A') (A') (A') (A') (A") (A') (A') (A') (A')
                 (A') (A") (A') (A") (A')
       Virtual   (A') (A') (A') (A") (A') (A") (A') (A") (A') (A')
                 (A') (A') (A") (A') (A') (A") (A') (A') (A") (A')
                 (A") (A') (A') (A") (A') (A') (A") (A') (A") (A')
                 (A') (A') (A") (A') (A") (A') (A") (A') (A') (A")
                 (A') (A") (A') (A') (A") (A') (A') (A") (A') (A")
                 (A') (A') (A") (A') (A") (A') (A') (A') (A") (A')
                 (A") (A') (A') (A") (A') (A") (A') (A") (A') (A')
                 (A') (A") (A') (A") (A') (A') (A") (A') (A") (A')
                 (A') (A") (A') (A") (A') (A") (A') (A') (A") (A')
                 (A") (A') (A') (A") (A') (A') (A") (A') (A") (A')
                 (A') (A") (A') (A") (A') (A') (A") (A') (A') (A")
                 (A') (A') (A") (A') (A') (A") (A") (A') (A') (A")
                 (A') (A') (A") (A') (A') (A') (A')
 The electronic state is 1-A'.
 Alpha  occ. eigenvalues --  -91.73204 -15.35760 -11.10175  -8.73424  -6.41623
 Alpha  occ. eigenvalues --   -6.41376  -6.41375  -0.99556  -0.77500  -0.41367
 Alpha  occ. eigenvalues --   -0.33382  -0.29862  -0.29857  -0.14067  -0.14021
 Alpha virt. eigenvalues --    0.17200   0.19245   0.23647   0.23723   0.23930
 Alpha virt. eigenvalues --    0.23975   0.24945   0.30258   0.30342   0.31079
 Alpha virt. eigenvalues --    0.35715   0.39429   0.40420   0.41300   0.44113
 Alpha virt. eigenvalues --    0.44125   0.44954   0.54677   0.54688   0.54784
 Alpha virt. eigenvalues --    0.54915   0.56488   0.62534   0.63567   0.63702
 Alpha virt. eigenvalues --    0.73110   0.74048   0.75058   0.77881   0.77886
 Alpha virt. eigenvalues --    0.80682   0.82758   0.83085   0.88207   0.88424
 Alpha virt. eigenvalues --    0.90367   0.94391   0.94401   0.99698   1.03938
 Alpha virt. eigenvalues --    1.04069   1.05411   1.05413   1.12025   1.13879
 Alpha virt. eigenvalues --    1.13884   1.28822   1.28843   1.32086   1.32711
 Alpha virt. eigenvalues --    1.32970   1.35451   1.35794   1.37003   1.39918
 Alpha virt. eigenvalues --    1.40414   1.42583   1.55772   1.60008   1.60048
 Alpha virt. eigenvalues --    1.70207   1.70442   1.79022   1.86495   1.87364
 Alpha virt. eigenvalues --    1.88132   1.89643   2.00968   2.01069   2.06202
 Alpha virt. eigenvalues --    2.14130   2.14425   2.18516   2.28644   2.28648
 Alpha virt. eigenvalues --    2.37040   2.39376   2.41832   2.46792   2.48697
 Alpha virt. eigenvalues --    2.49535   2.50782   2.59587   2.59588   2.61139
 Alpha virt. eigenvalues --    2.62168   2.70150   2.72460   2.72479   2.86260
 Alpha virt. eigenvalues --    3.04627   3.04758   3.19593   3.37222   3.37314
 Alpha virt. eigenvalues --    3.61454   3.64632   3.64649   3.67704   3.67705
 Alpha virt. eigenvalues --    3.81772   3.85487   3.86142   3.90558   3.90768
 Alpha virt. eigenvalues --    4.17274   4.18903   4.30133   4.69833   4.75712
 Alpha virt. eigenvalues --    4.77509   4.94167   5.20188   5.20189   5.45386
 Alpha virt. eigenvalues --    5.45396   5.69593   5.69639   5.86205   5.87253
 Alpha virt. eigenvalues --    6.27886   6.36749   6.37529   6.44974   6.68412
 Alpha virt. eigenvalues --   11.75645  16.60409
          Condensed to atoms (all electrons):
               1          2          3
     1  N    6.808995   0.710310  -0.106940
     2  C    0.710310   5.039390   0.365249
     3  S   -0.106940   0.365249  16.214378
 Mulliken charges:
               1
     1  N   -0.412365
     2  C   -0.114949
     3  S   -0.472686
 Sum of Mulliken charges =  -1.00000
 Mulliken charges with hydrogens summed into heavy atoms:
               1
     1  N   -0.412365
     2  C   -0.114949
     3  S   -0.472686
 Electronic spatial extent (au):  <R**2>=            225.9578
 Charge=             -1.0000 electrons
 Dipole moment (field-independent basis, Debye):
    X=             -0.2803    Y=             -1.5391    Z=             -0.0000  Tot=              1.5644
 Quadrupole moment (field-independent basis, Debye-Ang):
   XX=            -29.5375   YY=            -41.0037   ZZ=            -29.2753
   XY=             -1.8831   XZ=              0.0000   YZ=              0.0000
 Traceless Quadrupole moment (field-independent basis, Debye-Ang):
   XX=              3.7347   YY=             -7.7315   ZZ=              3.9969
   XY=             -1.8831   XZ=              0.0000   YZ=              0.0000
 Octapole moment (field-independent basis, Debye-Ang**2):
  XXX=              0.9601  YYY=            -21.2049  ZZZ=             -0.0000  XYY=             -2.6416
  XXY=              1.6614  XXZ=             -0.0000  XZZ=              0.3298  YZZ=              1.9751
  YYZ=              0.0000  XYZ=              0.0000
 Hexadecapole moment (field-independent basis, Debye-Ang**3):
 XXXX=            -50.4127 YYYY=           -321.9814 ZZZZ=            -45.8167 XXXY=            -16.9449
 XXXZ=              0.0000 YYYX=            -20.3855 YYYZ=              0.0000 ZZZX=              0.0000
 ZZZY=              0.0000 XXYY=            -60.2525 XXZZ=            -16.0364 YYZZ=            -58.8699
 XXYZ=              0.0000 YYXZ=              0.0000 ZZXY=             -5.6185
 N-N= 7.002082242226D+01 E-N=-1.310473194645D+03  KE= 4.896785565573D+02
 Symmetry A'   KE= 4.486817934959D+02
 Symmetry A"   KE= 4.099676306146D+01
 No NMR shielding tensors so no spin-rotation constants.
 Leave Link  601 at Wed May  4 19:04:21 2022, MaxMem=   754974720 cpu:               1.3 elap:               0.4
 (Enter /opt/cluster/programs/g16-c.01/g16/l9999.exe)
 Unable to Open any file for archive entry.
 1\1\GINC-NODE41\FOpt\RMP2-FC\Aug-CC-pVTZ\C1N1S1(1-)\TOEPFER\04-May-202
 2\0\\#P MP2/aug-cc-pVTZ scf(maxcycle=200) opt geom(AddGIC)\\Gaussian i
 nput\\-1,1\N,-0.0000473278,0.,-1.8216075017\C,-0.000055039,0.,-0.62878
 50019\S,0.2599350074,0.,1.0127962312\\Version=ES64L-G16RevC.01\State=1
 -A'\HF=-489.9419883\MP2=-490.4759026\RMSD=4.044e-09\RMSF=5.905e-03\Dip
 ole=0.0457551,0.,0.5817879\PG=CS [SG(C1N1S1)]\\@
 The archive entry for this job was punched.


 SUPPORT THE RIGHT TO ARM BEARS!
 (ADD A CLAWS TO THE BILL OF RIGHTS)
 Job cpu time:       0 days  0 hours  2 minutes 45.8 seconds.
 Elapsed time:       0 days  0 hours  0 minutes 45.0 seconds.
 File lengths (MBytes):  RWF=     16 Int=      0 D2E=      0 Chk=      3 Scr=      1
 Normal termination of Gaussian 16 at Wed May  4 19:04:21 2022.
