 Entering Gaussian System, Link 0=/opt/cluster/programs/g16-c.01/g16/g16
 Input=/scratch/toepfer/jobs/tmp.5739916/gaussian_8_scn.com
 Output=/scratch/toepfer/jobs/tmp.5739916/gaussian_8_scn.out
 Initial command:
 /opt/cluster/programs/g16-c.01/g16/l1.exe "/scratch/toepfer/jobs/tmp.5739916/Gau-146961.inp" -scrdir="/scratch/toepfer/jobs/tmp.5739916/"
 Entering Link 1 = /opt/cluster/programs/g16-c.01/g16/l1.exe PID=    146962.
  
 Copyright (c) 1988-2019, Gaussian, Inc.  All Rights Reserved.
  
 This is part of the Gaussian(R) 16 program.  It is based on
 the Gaussian(R) 09 system (copyright 2009, Gaussian, Inc.),
 the Gaussian(R) 03 system (copyright 2003, Gaussian, Inc.),
 the Gaussian(R) 98 system (copyright 1998, Gaussian, Inc.),
 the Gaussian(R) 94 system (copyright 1995, Gaussian, Inc.),
 the Gaussian 92(TM) system (copyright 1992, Gaussian, Inc.),
 the Gaussian 90(TM) system (copyright 1990, Gaussian, Inc.),
 the Gaussian 88(TM) system (copyright 1988, Gaussian, Inc.),
 the Gaussian 86(TM) system (copyright 1986, Carnegie Mellon
 University), and the Gaussian 82(TM) system (copyright 1983,
 Carnegie Mellon University). Gaussian is a federally registered
 trademark of Gaussian, Inc.
  
 This software contains proprietary and confidential information,
 including trade secrets, belonging to Gaussian, Inc.
  
 This software is provided under written license and may be
 used, copied, transmitted, or stored only in accord with that
 written license.
  
 The following legend is applicable only to US Government
 contracts under FAR:
  
                    RESTRICTED RIGHTS LEGEND
  
 Use, reproduction and disclosure by the US Government is
 subject to restrictions as set forth in subparagraphs (a)
 and (c) of the Commercial Computer Software - Restricted
 Rights clause in FAR 52.227-19.
  
 Gaussian, Inc.
 340 Quinnipiac St., Bldg. 40, Wallingford CT 06492
  
  
 ---------------------------------------------------------------
 Warning -- This program may not be used in any manner that
 competes with the business of Gaussian, Inc. or will provide
 assistance to any competitor of Gaussian, Inc.  The licensee
 of this program is prohibited from giving any competitor of
 Gaussian, Inc. access to this program.  By using this program,
 the user acknowledges that Gaussian, Inc. is engaged in the
 business of creating and licensing software in the field of
 computational chemistry and represents and warrants to the
 licensee that it is not a competitor of Gaussian, Inc. and that
 it will not use this program in any manner prohibited above.
 ---------------------------------------------------------------
  

 Cite this work as:
 Gaussian 16, Revision C.01,
 M. J. Frisch, G. W. Trucks, H. B. Schlegel, G. E. Scuseria, 
 M. A. Robb, J. R. Cheeseman, G. Scalmani, V. Barone, 
 G. A. Petersson, H. Nakatsuji, X. Li, M. Caricato, A. V. Marenich, 
 J. Bloino, B. G. Janesko, R. Gomperts, B. Mennucci, H. P. Hratchian, 
 J. V. Ortiz, A. F. Izmaylov, J. L. Sonnenberg, D. Williams-Young, 
 F. Ding, F. Lipparini, F. Egidi, J. Goings, B. Peng, A. Petrone, 
 T. Henderson, D. Ranasinghe, V. G. Zakrzewski, J. Gao, N. Rega, 
 G. Zheng, W. Liang, M. Hada, M. Ehara, K. Toyota, R. Fukuda, 
 J. Hasegawa, M. Ishida, T. Nakajima, Y. Honda, O. Kitao, H. Nakai, 
 T. Vreven, K. Throssell, J. A. Montgomery, Jr., J. E. Peralta, 
 F. Ogliaro, M. J. Bearpark, J. J. Heyd, E. N. Brothers, K. N. Kudin, 
 V. N. Staroverov, T. A. Keith, R. Kobayashi, J. Normand, 
 K. Raghavachari, A. P. Rendell, J. C. Burant, S. S. Iyengar, 
 J. Tomasi, M. Cossi, J. M. Millam, M. Klene, C. Adamo, R. Cammi, 
 J. W. Ochterski, R. L. Martin, K. Morokuma, O. Farkas, 
 J. B. Foresman, and D. J. Fox, Gaussian, Inc., Wallingford CT, 2019.
 
 ******************************************
 Gaussian 16:  ES64L-G16RevC.01  3-Jul-2019
                 4-May-2022 
 ******************************************
 %nproc=4
 Will use up to    4 processors via shared memory.
 %mem=5760MB
 %chk=gaussian_8_scn.chk
 -----------------------------------------------------
 #P MP2/aug-cc-pVTZ scf(maxcycle=200) opt geom(AddGIC)
 -----------------------------------------------------
 1/18=20,19=15,38=1,145=903/1,3;
 2/9=110,12=2,17=6,18=5,40=1/2;
 3/5=16,6=1,7=10,11=9,25=1,30=1,71=1/1,2,3;
 4//1;
 5/5=2,7=200,38=5/2;
 8/6=4,10=1/1;
 9/15=2,16=-3/6;
 10/5=1/2;
 6/7=2,8=2,9=2,10=2/1;
 7/12=2/1,2,3,16;
 1/18=20,19=15,145=903/3(2);
 2/9=110/2;
 99//99;
 2/9=110/2;
 3/5=16,6=1,7=10,11=9,25=1,30=1,71=1/1,2,3;
 4/5=5,16=3,69=1/1;
 5/5=2,7=200,38=5/2;
 8/6=4,10=1/1;
 9/15=2,16=-3/6;
 10/5=1/2;
 7/12=2/1,2,3,16;
 1/18=20,19=15,145=903/3(-8);
 2/9=110/2;
 6/7=2,8=2,9=2,10=2/1;
 99/9=10/99;
 Leave Link    1 at Wed May  4 19:06:52 2022, MaxMem=   754974720 cpu:               0.1 elap:               0.0
 (Enter /opt/cluster/programs/g16-c.01/g16/l101.exe)
 --------------
 Gaussian input
 --------------
 Symbolic Z-matrix:
 Charge = -1 Multiplicity = 1
 N                     0.        0.       -1.82094 
 C                     0.        0.       -0.62859 
 S                     0.90463   0.        0.76442 
 
 Initializing the GIC definitions file.
 Number of initial coordinates =     3
 Number of input entries/lines =     1
 Number of additional coordinates =     0
 Number of removed coordinates =     0
 Number of frozen coordinates =     1
 Number of final active and frozen coordinates =     3
 ITRead=  0  0  0
 MicOpt= -1 -1 -1
 NAtoms=      3 NQM=        3 NQMF=       0 NMMI=      0 NMMIF=      0
                NMic=       0 NMicF=      0.
                    Isotopes and Nuclear Properties:
 (Nuclear quadrupole moments (NQMom) in fm**2, nuclear magnetic moments (NMagM)
  in nuclear magnetons)

  Atom         1           2           3
 IAtWgt=          14          12          32
 AtmWgt=  14.0030740  12.0000000  31.9720718
 NucSpn=           2           0           0
 AtZEff=  -0.0000000  -0.0000000  -0.0000000
 NQMom=    2.0440000   0.0000000   0.0000000
 NMagM=    0.4037610   0.0000000   0.0000000
 AtZNuc=   7.0000000   6.0000000  16.0000000
 Leave Link  101 at Wed May  4 19:06:53 2022, MaxMem=   754974720 cpu:               3.0 elap:               0.7
 (Enter /opt/cluster/programs/g16-c.01/g16/l103.exe)

 GradGradGradGradGradGradGradGradGradGradGradGradGradGradGradGradGradGrad
 Berny optimization.
 Initialization pass.
                           ----------------------------
                           !    Initial Parameters    !
                           ! (Angstroms and Degrees)  !
 --------------------------                            --------------------------
 ! Name  Definition              Value          Derivative Info.                !
 --------------------------------------------------------------------------------
 ! R1    R(1,2)                  1.1924         estimate D2E/DX2                !
 ! R2    R(2,3)                  1.661          estimate D2E/DX2                !
 ! A1    A(1,2,3)              147.0            Frozen                          !
 --------------------------------------------------------------------------------
 Trust Radius=3.00D-01 FncErr=1.00D-07 GrdErr=1.00D-07 EigMax=2.50D+02 EigMin=1.00D-04
 Number of steps in this run=     20 maximum allowed number of steps=    100.
 GradGradGradGradGradGradGradGradGradGradGradGradGradGradGradGradGradGrad

 Leave Link  103 at Wed May  4 19:06:53 2022, MaxMem=   754974720 cpu:               0.1 elap:               0.0
 (Enter /opt/cluster/programs/g16-c.01/g16/l202.exe)
                          Input orientation:                          
 ---------------------------------------------------------------------
 Center     Atomic      Atomic             Coordinates (Angstroms)
 Number     Number       Type             X           Y           Z
 ---------------------------------------------------------------------
      1          7           0        0.000000    0.000000   -1.820943
      2          6           0        0.000000    0.000000   -0.628586
      3         16           0        0.904628    0.000000    0.764419
 ---------------------------------------------------------------------
                    Distance matrix (angstroms):
                    1          2          3
     1  N    0.000000
     2  C    1.192357   0.000000
     3  S    2.739060   1.660968   0.000000
 Stoichiometry    CNS(1-)
 Framework group  CS[SG(CNS)]
 Deg. of freedom     3
 Full point group                 CS      NOp   2
 Largest Abelian subgroup         CS      NOp   2
 Largest concise Abelian subgroup C1      NOp   1
                         Standard orientation:                         
 ---------------------------------------------------------------------
 Center     Atomic      Atomic             Coordinates (Angstroms)
 Number     Number       Type             X           Y           Z
 ---------------------------------------------------------------------
      1          7           0        0.858772    1.520159    0.000000
      2          6           0        0.000000    0.692980    0.000000
      3         16           0       -0.375713   -0.924937    0.000000
 ---------------------------------------------------------------------
 Rotational constants (GHZ):         370.0653159           6.4013236           6.2924775
 Leave Link  202 at Wed May  4 19:06:53 2022, MaxMem=   754974720 cpu:               0.1 elap:               0.0
 (Enter /opt/cluster/programs/g16-c.01/g16/l301.exe)
 Standard basis: Aug-CC-pVTZ (5D, 7F)
 Ernie: Thresh=  0.10000D-02 Tol=  0.10000D-05 Strict=F.
 Ernie:  19 primitive shells out of 124 were deleted.
 There are   114 symmetry adapted cartesian basis functions of A'  symmetry.
 There are    55 symmetry adapted cartesian basis functions of A"  symmetry.
 There are    93 symmetry adapted basis functions of A'  symmetry.
 There are    49 symmetry adapted basis functions of A"  symmetry.
   142 basis functions,   258 primitive gaussians,   169 cartesian basis functions
    15 alpha electrons       15 beta electrons
       nuclear repulsion energy        70.8631338355 Hartrees.
 IExCor=    0 DFT=F Ex=HF Corr=None ExCW=0 ScaHFX=  1.000000
 ScaDFX=  1.000000  1.000000  1.000000  1.000000 ScalE2=  1.000000  1.000000
 IRadAn=      5 IRanWt=     -1 IRanGd=            0 ICorTp=0 IEmpDi=  4
 NAtoms=    3 NActive=    3 NUniq=    3 SFac= 1.00D+00 NAtFMM=   60 NAOKFM=F Big=F
 Integral buffers will be    131072 words long.
 Raffenetti 1 integral format.
 Two-electron integral symmetry is turned on.
 Leave Link  301 at Wed May  4 19:06:53 2022, MaxMem=   754974720 cpu:               0.2 elap:               0.1
 (Enter /opt/cluster/programs/g16-c.01/g16/l302.exe)
 NPDir=0 NMtPBC=     1 NCelOv=     1 NCel=       1 NClECP=     1 NCelD=      1
         NCelK=      1 NCelE2=     1 NClLst=     1 CellRange=     0.0.
 One-electron integrals computed using PRISM.
 One-electron integral symmetry used in STVInt
 NBasis=   142 RedAO= T EigKep=  1.05D-04  NBF=    93    49
 NBsUse=   142 1.00D-06 EigRej= -1.00D+00 NBFU=    93    49
 Leave Link  302 at Wed May  4 19:06:53 2022, MaxMem=   754974720 cpu:               0.6 elap:               0.2
 (Enter /opt/cluster/programs/g16-c.01/g16/l303.exe)
 DipDrv:  MaxL=1.
 Leave Link  303 at Wed May  4 19:06:53 2022, MaxMem=   754974720 cpu:               0.2 elap:               0.1
 (Enter /opt/cluster/programs/g16-c.01/g16/l401.exe)
 ExpMin= 3.51D-02 ExpMax= 3.74D+05 ExpMxC= 1.18D+03 IAcc=3 IRadAn=         5 AccDes= 0.00D+00
 Harris functional with IExCor=  205 and IRadAn=       5 diagonalized for initial guess.
 HarFok:  IExCor=  205 AccDes= 0.00D+00 IRadAn=         5 IDoV= 1 UseB2=F ITyADJ=14
 ICtDFT=  3500011 ScaDFX=  1.000000  1.000000  1.000000  1.000000
 FoFCou: FMM=F IPFlag=           0 FMFlag=      100000 FMFlg1=           0
         NFxFlg=           0 DoJE=T BraDBF=F KetDBF=T FulRan=T
         wScrn=  0.000000 ICntrl=       500 IOpCl=  0 I1Cent=   200000004 NGrid=           0
         NMat0=    1 NMatS0=      1 NMatT0=    0 NMatD0=    1 NMtDS0=    0 NMtDT0=    0
 Petite list used in FoFCou.
 Harris En= -489.746942376029    
 JPrj=0 DoOrth=F DoCkMO=F.
 Initial guess orbital symmetries:
       Occupied  (A') (A') (A') (A') (A') (A") (A') (A') (A') (A')
                 (A') (A") (A') (A") (A')
       Virtual   (A') (A") (A') (A') (A') (A") (A') (A') (A") (A')
                 (A") (A') (A') (A') (A") (A') (A') (A") (A') (A')
                 (A") (A') (A') (A') (A") (A') (A") (A') (A') (A")
                 (A') (A') (A") (A') (A") (A') (A") (A') (A") (A')
                 (A') (A') (A") (A') (A') (A') (A") (A") (A') (A")
                 (A') (A') (A") (A') (A') (A") (A') (A") (A') (A')
                 (A') (A") (A') (A") (A') (A") (A') (A") (A') (A')
                 (A') (A") (A') (A") (A') (A") (A') (A') (A") (A')
                 (A") (A') (A") (A') (A') (A") (A') (A") (A') (A')
                 (A') (A") (A') (A") (A') (A') (A") (A') (A') (A")
                 (A') (A") (A') (A") (A') (A") (A') (A') (A') (A")
                 (A') (A') (A") (A') (A') (A") (A") (A') (A') (A")
                 (A') (A") (A') (A') (A') (A') (A')
 The electronic state of the initial guess is 1-A'.
 Leave Link  401 at Wed May  4 19:06:53 2022, MaxMem=   754974720 cpu:               1.2 elap:               0.3
 (Enter /opt/cluster/programs/g16-c.01/g16/l502.exe)
 Keep R1 ints in memory in symmetry-blocked form, NReq=77616006.
 FoFCou: FMM=F IPFlag=           0 FMFlag=           0 FMFlg1=           0
         NFxFlg=           0 DoJE=F BraDBF=F KetDBF=F FulRan=T
         wScrn=  0.000000 ICntrl=       600 IOpCl=  0 I1Cent=           0 NGrid=           0
         NMat0=    1 NMatS0=  10153 NMatT0=    0 NMatD0=    1 NMtDS0=    0 NMtDT0=    0
 Petite list used in FoFCou.
 Closed shell SCF:
 Using DIIS extrapolation, IDIIS=  1040.
 NGot=   754974720 LenX=   728846748 LenY=   728817746
 Requested convergence on RMS density matrix=1.00D-08 within 200 cycles.
 Requested convergence on MAX density matrix=1.00D-06.
 Requested convergence on             energy=1.00D-06.
 No special actions if energy rises.

 Cycle   1  Pass 1  IDiag  1:
 E= -489.732246642445    
 DIIS: error= 4.43D-02 at cycle   1 NSaved=   1.
 NSaved= 1 IEnMin= 1 EnMin= -489.732246642445     IErMin= 1 ErrMin= 4.43D-02
 ErrMax= 4.43D-02  0.00D+00 EMaxC= 1.00D-01 BMatC= 3.47D-01 BMatP= 3.47D-01
 IDIUse=3 WtCom= 5.57D-01 WtEn= 4.43D-01
 Coeff-Com:  0.100D+01
 Coeff-En:   0.100D+01
 Coeff:      0.100D+01
 Gap=     0.508 Goal=   None    Shift=    0.000
 GapD=    0.508 DampG=2.000 DampE=0.500 DampFc=1.0000 IDamp=-1.
 RMSDP=3.40D-03 MaxDP=6.83D-02              OVMax= 2.25D-01

 Cycle   2  Pass 1  IDiag  1:
 E= -489.845764643521     Delta-E=       -0.113518001076 Rises=F Damp=F
 DIIS: error= 2.18D-02 at cycle   2 NSaved=   2.
 NSaved= 2 IEnMin= 2 EnMin= -489.845764643521     IErMin= 2 ErrMin= 2.18D-02
 ErrMax= 2.18D-02  0.00D+00 EMaxC= 1.00D-01 BMatC= 7.70D-02 BMatP= 3.47D-01
 IDIUse=3 WtCom= 7.82D-01 WtEn= 2.18D-01
 Coeff-Com:  0.261D+00 0.739D+00
 Coeff-En:   0.120D+00 0.880D+00
 Coeff:      0.230D+00 0.770D+00
 Gap=     0.367 Goal=   None    Shift=    0.000
 RMSDP=1.48D-03 MaxDP=4.27D-02 DE=-1.14D-01 OVMax= 9.29D-02

 Cycle   3  Pass 1  IDiag  1:
 E= -489.903739122614     Delta-E=       -0.057974479093 Rises=F Damp=F
 DIIS: error= 1.43D-02 at cycle   3 NSaved=   3.
 NSaved= 3 IEnMin= 3 EnMin= -489.903739122614     IErMin= 3 ErrMin= 1.43D-02
 ErrMax= 1.43D-02  0.00D+00 EMaxC= 1.00D-01 BMatC= 1.66D-02 BMatP= 7.70D-02
 IDIUse=3 WtCom= 8.57D-01 WtEn= 1.43D-01
 Coeff-Com: -0.146D-01 0.299D+00 0.716D+00
 Coeff-En:   0.000D+00 0.536D-01 0.946D+00
 Coeff:     -0.125D-01 0.264D+00 0.749D+00
 Gap=     0.313 Goal=   None    Shift=    0.000
 RMSDP=6.00D-04 MaxDP=1.35D-02 DE=-5.80D-02 OVMax= 5.27D-02

 Cycle   4  Pass 1  IDiag  1:
 E= -489.918165527544     Delta-E=       -0.014426404930 Rises=F Damp=F
 DIIS: error= 5.09D-03 at cycle   4 NSaved=   4.
 NSaved= 4 IEnMin= 4 EnMin= -489.918165527544     IErMin= 4 ErrMin= 5.09D-03
 ErrMax= 5.09D-03  0.00D+00 EMaxC= 1.00D-01 BMatC= 1.26D-03 BMatP= 1.66D-02
 IDIUse=3 WtCom= 9.49D-01 WtEn= 5.09D-02
 Coeff-Com: -0.143D-01 0.538D-01 0.286D+00 0.675D+00
 Coeff-En:   0.000D+00 0.000D+00 0.000D+00 0.100D+01
 Coeff:     -0.136D-01 0.511D-01 0.271D+00 0.691D+00
 Gap=     0.305 Goal=   None    Shift=    0.000
 RMSDP=1.50D-04 MaxDP=3.28D-03 DE=-1.44D-02 OVMax= 1.38D-02

 Cycle   5  Pass 1  IDiag  1:
 E= -489.919420948568     Delta-E=       -0.001255421023 Rises=F Damp=F
 DIIS: error= 9.23D-04 at cycle   5 NSaved=   5.
 NSaved= 5 IEnMin= 5 EnMin= -489.919420948568     IErMin= 5 ErrMin= 9.23D-04
 ErrMax= 9.23D-04  0.00D+00 EMaxC= 1.00D-01 BMatC= 6.65D-05 BMatP= 1.26D-03
 IDIUse=3 WtCom= 9.91D-01 WtEn= 9.23D-03
 Coeff-Com:  0.244D-02-0.407D-01-0.953D-01 0.256D-01 0.111D+01
 Coeff-En:   0.000D+00 0.000D+00 0.000D+00 0.000D+00 0.100D+01
 Coeff:      0.242D-02-0.403D-01-0.945D-01 0.254D-01 0.111D+01
 Gap=     0.305 Goal=   None    Shift=    0.000
 RMSDP=9.33D-05 MaxDP=1.59D-03 DE=-1.26D-03 OVMax= 8.05D-03

 Cycle   6  Pass 1  IDiag  1:
 E= -489.919611571410     Delta-E=       -0.000190622843 Rises=F Damp=F
 DIIS: error= 4.18D-04 at cycle   6 NSaved=   6.
 NSaved= 6 IEnMin= 6 EnMin= -489.919611571410     IErMin= 6 ErrMin= 4.18D-04
 ErrMax= 4.18D-04  0.00D+00 EMaxC= 1.00D-01 BMatC= 8.80D-06 BMatP= 6.65D-05
 IDIUse=3 WtCom= 9.96D-01 WtEn= 4.18D-03
 Coeff-Com:  0.115D-02-0.106D-01-0.326D-01-0.711D-01 0.839D-01 0.103D+01
 Coeff-En:   0.000D+00 0.000D+00 0.000D+00 0.000D+00 0.000D+00 0.100D+01
 Coeff:      0.114D-02-0.106D-01-0.325D-01-0.708D-01 0.836D-01 0.103D+01
 Gap=     0.306 Goal=   None    Shift=    0.000
 RMSDP=4.11D-05 MaxDP=8.95D-04 DE=-1.91D-04 OVMax= 4.08D-03

 Cycle   7  Pass 1  IDiag  1:
 E= -489.919645270150     Delta-E=       -0.000033698740 Rises=F Damp=F
 DIIS: error= 1.76D-04 at cycle   7 NSaved=   7.
 NSaved= 7 IEnMin= 7 EnMin= -489.919645270150     IErMin= 7 ErrMin= 1.76D-04
 ErrMax= 1.76D-04  0.00D+00 EMaxC= 1.00D-01 BMatC= 1.86D-06 BMatP= 8.80D-06
 IDIUse=3 WtCom= 9.98D-01 WtEn= 1.76D-03
 Coeff-Com: -0.269D-03 0.638D-02 0.180D-01-0.667D-02-0.165D+00-0.172D+00
 Coeff-Com:  0.132D+01
 Coeff-En:   0.000D+00 0.000D+00 0.000D+00 0.000D+00 0.000D+00 0.000D+00
 Coeff-En:   0.100D+01
 Coeff:     -0.269D-03 0.636D-02 0.180D-01-0.666D-02-0.165D+00-0.172D+00
 Coeff:      0.132D+01
 Gap=     0.305 Goal=   None    Shift=    0.000
 RMSDP=2.88D-05 MaxDP=7.96D-04 DE=-3.37D-05 OVMax= 2.73D-03

 Cycle   8  Pass 1  IDiag  1:
 E= -489.919655868312     Delta-E=       -0.000010598162 Rises=F Damp=F
 DIIS: error= 1.17D-04 at cycle   8 NSaved=   8.
 NSaved= 8 IEnMin= 8 EnMin= -489.919655868312     IErMin= 8 ErrMin= 1.17D-04
 ErrMax= 1.17D-04  0.00D+00 EMaxC= 1.00D-01 BMatC= 3.72D-07 BMatP= 1.86D-06
 IDIUse=3 WtCom= 9.99D-01 WtEn= 1.17D-03
 Coeff-Com: -0.118D-03-0.121D-02-0.244D-02 0.131D-01 0.738D-01-0.628D-01
 Coeff-Com: -0.727D+00 0.171D+01
 Coeff-En:   0.000D+00 0.000D+00 0.000D+00 0.000D+00 0.000D+00 0.000D+00
 Coeff-En:   0.000D+00 0.100D+01
 Coeff:     -0.118D-03-0.121D-02-0.244D-02 0.131D-01 0.737D-01-0.627D-01
 Coeff:     -0.726D+00 0.171D+01
 Gap=     0.305 Goal=   None    Shift=    0.000
 RMSDP=1.84D-05 MaxDP=6.26D-04 DE=-1.06D-05 OVMax= 1.52D-03

 Cycle   9  Pass 1  IDiag  1:
 E= -489.919658932524     Delta-E=       -0.000003064212 Rises=F Damp=F
 DIIS: error= 5.41D-05 at cycle   9 NSaved=   9.
 NSaved= 9 IEnMin= 9 EnMin= -489.919658932524     IErMin= 9 ErrMin= 5.41D-05
 ErrMax= 5.41D-05  0.00D+00 EMaxC= 1.00D-01 BMatC= 6.76D-08 BMatP= 3.72D-07
 IDIUse=1 WtCom= 1.00D+00 WtEn= 0.00D+00
 Coeff-Com:  0.102D-03-0.818D-03-0.259D-02-0.368D-02 0.379D-02 0.515D-01
 Coeff-Com:  0.432D-01-0.684D+00 0.159D+01
 Coeff:      0.102D-03-0.818D-03-0.259D-02-0.368D-02 0.379D-02 0.515D-01
 Coeff:      0.432D-01-0.684D+00 0.159D+01
 Gap=     0.305 Goal=   None    Shift=    0.000
 RMSDP=7.90D-06 MaxDP=2.38D-04 DE=-3.06D-06 OVMax= 6.22D-04

 Cycle  10  Pass 1  IDiag  1:
 E= -489.919659530938     Delta-E=       -0.000000598413 Rises=F Damp=F
 DIIS: error= 1.69D-05 at cycle  10 NSaved=  10.
 NSaved=10 IEnMin=10 EnMin= -489.919659530938     IErMin=10 ErrMin= 1.69D-05
 ErrMax= 1.69D-05  0.00D+00 EMaxC= 1.00D-01 BMatC= 9.30D-09 BMatP= 6.76D-08
 IDIUse=1 WtCom= 1.00D+00 WtEn= 0.00D+00
 Coeff-Com:  0.251D-04 0.274D-03 0.609D-03-0.170D-02-0.146D-01 0.114D-02
 Coeff-Com:  0.138D+00-0.230D+00-0.280D+00 0.139D+01
 Coeff:      0.251D-04 0.274D-03 0.609D-03-0.170D-02-0.146D-01 0.114D-02
 Coeff:      0.138D+00-0.230D+00-0.280D+00 0.139D+01
 Gap=     0.305 Goal=   None    Shift=    0.000
 RMSDP=2.56D-06 MaxDP=5.83D-05 DE=-5.98D-07 OVMax= 2.28D-04

 Cycle  11  Pass 1  IDiag  1:
 E= -489.919659600056     Delta-E=       -0.000000069119 Rises=F Damp=F
 DIIS: error= 2.46D-06 at cycle  11 NSaved=  11.
 NSaved=11 IEnMin=11 EnMin= -489.919659600056     IErMin=11 ErrMin= 2.46D-06
 ErrMax= 2.46D-06  0.00D+00 EMaxC= 1.00D-01 BMatC= 6.85D-10 BMatP= 9.30D-09
 IDIUse=1 WtCom= 1.00D+00 WtEn= 0.00D+00
 Coeff-Com: -0.178D-04 0.254D-04 0.712D-04 0.104D-02 0.346D-02-0.519D-02
 Coeff-Com: -0.419D-01 0.138D+00-0.112D+00-0.288D+00 0.130D+01
 Coeff:     -0.178D-04 0.254D-04 0.712D-04 0.104D-02 0.346D-02-0.519D-02
 Coeff:     -0.419D-01 0.138D+00-0.112D+00-0.288D+00 0.130D+01
 Gap=     0.305 Goal=   None    Shift=    0.000
 RMSDP=6.42D-07 MaxDP=2.59D-05 DE=-6.91D-08 OVMax= 2.98D-05

 Cycle  12  Pass 1  IDiag  1:
 E= -489.919659602894     Delta-E=       -0.000000002838 Rises=F Damp=F
 DIIS: error= 8.16D-07 at cycle  12 NSaved=  12.
 NSaved=12 IEnMin=12 EnMin= -489.919659602894     IErMin=12 ErrMin= 8.16D-07
 ErrMax= 8.16D-07  0.00D+00 EMaxC= 1.00D-01 BMatC= 4.15D-11 BMatP= 6.85D-10
 IDIUse=1 WtCom= 1.00D+00 WtEn= 0.00D+00
 Coeff-Com:  0.824D-06-0.243D-04-0.737D-04-0.192D-04 0.850D-03 0.204D-03
 Coeff-Com: -0.524D-02 0.476D-03 0.342D-01-0.633D-01-0.201D+00 0.123D+01
 Coeff:      0.824D-06-0.243D-04-0.737D-04-0.192D-04 0.850D-03 0.204D-03
 Coeff:     -0.524D-02 0.476D-03 0.342D-01-0.633D-01-0.201D+00 0.123D+01
 Gap=     0.305 Goal=   None    Shift=    0.000
 RMSDP=2.32D-07 MaxDP=1.03D-05 DE=-2.84D-09 OVMax= 1.13D-05

 Cycle  13  Pass 1  IDiag  1:
 E= -489.919659603098     Delta-E=       -0.000000000204 Rises=F Damp=F
 DIIS: error= 2.85D-07 at cycle  13 NSaved=  13.
 NSaved=13 IEnMin=13 EnMin= -489.919659603098     IErMin=13 ErrMin= 2.85D-07
 ErrMax= 2.85D-07  0.00D+00 EMaxC= 1.00D-01 BMatC= 3.71D-12 BMatP= 4.15D-11
 IDIUse=1 WtCom= 1.00D+00 WtEn= 0.00D+00
 Coeff-Com:  0.184D-05 0.102D-05 0.449D-05-0.113D-03-0.528D-03 0.377D-03
 Coeff-Com:  0.592D-02-0.150D-01 0.585D-02 0.408D-01-0.979D-01-0.206D+00
 Coeff-Com:  0.127D+01
 Coeff:      0.184D-05 0.102D-05 0.449D-05-0.113D-03-0.528D-03 0.377D-03
 Coeff:      0.592D-02-0.150D-01 0.585D-02 0.408D-01-0.979D-01-0.206D+00
 Coeff:      0.127D+01
 Gap=     0.305 Goal=   None    Shift=    0.000
 RMSDP=7.35D-08 MaxDP=3.05D-06 DE=-2.04D-10 OVMax= 4.01D-06

 Cycle  14  Pass 1  IDiag  1:
 E= -489.919659603116     Delta-E=       -0.000000000018 Rises=F Damp=F
 DIIS: error= 6.32D-08 at cycle  14 NSaved=  14.
 NSaved=14 IEnMin=14 EnMin= -489.919659603116     IErMin=14 ErrMin= 6.32D-08
 ErrMax= 6.32D-08  0.00D+00 EMaxC= 1.00D-01 BMatC= 1.85D-13 BMatP= 3.71D-12
 IDIUse=1 WtCom= 1.00D+00 WtEn= 0.00D+00
 Coeff-Com: -0.482D-06 0.912D-06 0.323D-05 0.270D-04 0.776D-04-0.638D-04
 Coeff-Com: -0.114D-02 0.328D-02-0.250D-02-0.707D-02 0.351D-01-0.188D-01
 Coeff-Com: -0.319D+00 0.131D+01
 Coeff:     -0.482D-06 0.912D-06 0.323D-05 0.270D-04 0.776D-04-0.638D-04
 Coeff:     -0.114D-02 0.328D-02-0.250D-02-0.707D-02 0.351D-01-0.188D-01
 Coeff:     -0.319D+00 0.131D+01
 Gap=     0.305 Goal=   None    Shift=    0.000
 RMSDP=1.27D-08 MaxDP=3.51D-07 DE=-1.81D-11 OVMax= 8.03D-07

 Cycle  15  Pass 1  IDiag  1:
 E= -489.919659603115     Delta-E=        0.000000000001 Rises=F Damp=F
 DIIS: error= 1.36D-08 at cycle  15 NSaved=  15.
 NSaved=15 IEnMin=14 EnMin= -489.919659603116     IErMin=15 ErrMin= 1.36D-08
 ErrMax= 1.36D-08  0.00D+00 EMaxC= 1.00D-01 BMatC= 9.33D-15 BMatP= 1.85D-13
 IDIUse=1 WtCom= 1.00D+00 WtEn= 0.00D+00
 Coeff-Com:  0.693D-07-0.203D-06-0.956D-06-0.416D-05-0.457D-05 0.102D-04
 Coeff-Com:  0.103D-03-0.409D-03 0.611D-03 0.380D-03-0.714D-02 0.145D-01
 Coeff-Com:  0.484D-01-0.434D+00 0.138D+01
 Coeff:      0.693D-07-0.203D-06-0.956D-06-0.416D-05-0.457D-05 0.102D-04
 Coeff:      0.103D-03-0.409D-03 0.611D-03 0.380D-03-0.714D-02 0.145D-01
 Coeff:      0.484D-01-0.434D+00 0.138D+01
 Gap=     0.305 Goal=   None    Shift=    0.000
 RMSDP=2.58D-09 MaxDP=5.33D-08 DE= 1.02D-12 OVMax= 1.37D-07

 SCF Done:  E(RHF) =  -489.919659603     A.U. after   15 cycles
            NFock= 15  Conv=0.26D-08     -V/T= 2.0004
 KE= 4.897380213360D+02 PE=-1.312258432593D+03 EE= 2.617376178179D+02
 Leave Link  502 at Wed May  4 19:06:57 2022, MaxMem=   754974720 cpu:              12.3 elap:               3.3
 (Enter /opt/cluster/programs/g16-c.01/g16/l801.exe)
 ExpMin= 3.51D-02 ExpMax= 3.74D+05 ExpMxC= 1.18D+03 IAcc=3 IRadAn=         5 AccDes= 0.00D+00
 HarFok:  IExCor=  205 AccDes= 0.00D+00 IRadAn=         5 IDoV=-2 UseB2=F ITyADJ=14
 ICtDFT= 12500011 ScaDFX=  1.000000  1.000000  1.000000  1.000000
 DSYEVD-2 returned Info=          93 IAlg= 4 N=    46 NDim=    46 NE2=    15098045 trying  DSYEV.
 Largest valence mixing into a core orbital is  5.36D-04
 Largest core mixing into a valence orbital is  1.39D-04
 Range of M.O.s used for correlation:     8   142
 NBasis=   142 NAE=    15 NBE=    15 NFC=     7 NFV=     0
 NROrb=    135 NOA=     8 NOB=     8 NVA=   127 NVB=   127

 **** Warning!!: The largest alpha MO coefficient is  0.18876431D+02

 Leave Link  801 at Wed May  4 19:06:57 2022, MaxMem=   754974720 cpu:               0.4 elap:               0.1
 (Enter /opt/cluster/programs/g16-c.01/g16/l906.exe)
 Frozen-core derivative calculation, NFC=   7 NFV=   0.
 FulOut=F Deriv=T AODrv=T NAtomX=     3
   MMem=          74  MDisk=           8 MDiskD=           8
  W3Min=      359970 MinDsk=      723803 NBas6D=         169
 NBas2D=       14809    NTT=       14365    LW2=     3500000
    MDV=   754677531 MDiskM=       22268 NBas2p=       14795
 Fully direct method using O(ONN) memory.
 IMap=   1   2   3   4   5   6   7   8   9  10  11  12  13  14  15
 JobTyp=1 Pass  1:  I=   8 to  15 NPSUse=  4 ParTrn=T ParDer=T DoDerP=T.
 Spin components of T(2) and E(2):
     alpha-alpha T2 =       0.2938848298D-01 E2=     -0.6977911151D-01
     alpha-beta  T2 =       0.1554033285D+00 E2=     -0.3974384352D+00
     beta-beta   T2 =       0.2938848298D-01 E2=     -0.6977911151D-01
 The integrals were generated   1 times.
 ANorm=    0.1101898496D+01
 E2 =    -0.5369966582D+00 EUMP2 =    -0.49045665626130D+03
 Leave Link  906 at Wed May  4 19:07:04 2022, MaxMem=   754974720 cpu:              29.5 elap:               7.4
 (Enter /opt/cluster/programs/g16-c.01/g16/l1002.exe)
 Minotr:  Closed shell wavefunction.
          Computing MP2/KS-MP2 derivatives.
          Using Z-Vector for PSCF gradient.
          Skipping F1 and S1 gradient terms here.
          IDoAtm=111
          Frozen-core window.
          Direct CPHF calculation.
          Differentiating once with respect to electric field.
                with respect to dipole field.
          Differentiating once with respect to nuclear coordinates.
          Using symmetry in CPHF.
          Requested convergence is 1.0D-10 RMS, and 1.0D-09 maximum.
          NewPWx=F KeepS1=T KeepF1=T KeepIn=T MapXYZ=F SortEE=F KeepMc=T.
 Keep R1 ints in memory in symmetry-blocked form, NReq=77616884.
 FoFCou: FMM=F IPFlag=           0 FMFlag=           0 FMFlg1=           0
         NFxFlg=           0 DoJE=F BraDBF=F KetDBF=F FulRan=T
         wScrn=  0.000000 ICntrl=       600 IOpCl=  0 I1Cent=           0 NGrid=           0
         NMat0=    1 NMatS0=  10153 NMatT0=    0 NMatD0=    1 NMtDS0=    0 NMtDT0=    0
 Petite list used in FoFCou.
          MDV=     754974720 using IRadAn=       5.
          Solving linear equations separately, MaxMat=       0.
          There are     1 degrees of freedom in the 1st order CPHF.  IDoFFX=0 NUNeed=     1.
 LinEq1:  Iter=  0 NonCon=     1 RMS=5.06D-03 Max=8.96D-02 NDo=     1
 AX will form     1 AO Fock derivatives at one time.
 LinEq1:  Iter=  1 NonCon=     1 RMS=1.75D-03 Max=1.67D-02 NDo=     1
 LinEq1:  Iter=  2 NonCon=     1 RMS=6.59D-04 Max=9.23D-03 NDo=     1
 LinEq1:  Iter=  3 NonCon=     1 RMS=3.57D-04 Max=5.66D-03 NDo=     1
 LinEq1:  Iter=  4 NonCon=     1 RMS=2.04D-04 Max=5.55D-03 NDo=     1
 LinEq1:  Iter=  5 NonCon=     1 RMS=7.46D-05 Max=7.60D-04 NDo=     1
 LinEq1:  Iter=  6 NonCon=     1 RMS=2.06D-05 Max=2.44D-04 NDo=     1
 LinEq1:  Iter=  7 NonCon=     1 RMS=4.98D-06 Max=6.01D-05 NDo=     1
 LinEq1:  Iter=  8 NonCon=     1 RMS=1.10D-06 Max=1.01D-05 NDo=     1
 LinEq1:  Iter=  9 NonCon=     1 RMS=3.14D-07 Max=4.47D-06 NDo=     1
 LinEq1:  Iter= 10 NonCon=     1 RMS=7.06D-08 Max=8.38D-07 NDo=     1
 LinEq1:  Iter= 11 NonCon=     1 RMS=1.45D-08 Max=1.15D-07 NDo=     1
 LinEq1:  Iter= 12 NonCon=     1 RMS=2.89D-09 Max=3.52D-08 NDo=     1
 LinEq1:  Iter= 13 NonCon=     1 RMS=4.98D-10 Max=6.44D-09 NDo=     1
 LinEq1:  Iter= 14 NonCon=     0 RMS=8.60D-11 Max=9.65D-10 NDo=     1
 Linear equations converged to 1.000D-10 1.000D-09 after    14 iterations.
 End of Minotr F.D. properties file   721 does not exist.
 End of Minotr F.D. properties file   722 does not exist.
 End of Minotr F.D. properties file   788 does not exist.
 Leave Link 1002 at Wed May  4 19:07:08 2022, MaxMem=   754974720 cpu:              13.9 elap:               3.8
 (Enter /opt/cluster/programs/g16-c.01/g16/l601.exe)
 Copying SCF densities to generalized density rwf, IOpCl= 0 IROHF=0.

 **********************************************************************

            Population analysis using the SCF Density.

 **********************************************************************

 Orbital symmetries:
       Occupied  (A') (A') (A') (A') (A') (A") (A') (A') (A') (A')
                 (A') (A") (A') (A") (A')
       Virtual   (A') (A') (A') (A") (A') (A") (A') (A") (A') (A')
                 (A') (A') (A") (A') (A') (A") (A') (A') (A") (A')
                 (A") (A') (A') (A") (A') (A') (A") (A') (A') (A')
                 (A") (A') (A") (A') (A") (A') (A") (A') (A") (A')
                 (A') (A') (A") (A') (A') (A") (A') (A") (A') (A")
                 (A') (A') (A") (A') (A') (A") (A') (A") (A') (A')
                 (A') (A") (A') (A") (A') (A") (A') (A") (A') (A')
                 (A') (A") (A') (A") (A") (A') (A') (A') (A') (A")
                 (A") (A') (A") (A') (A") (A') (A') (A") (A') (A')
                 (A') (A") (A') (A") (A') (A') (A") (A') (A") (A')
                 (A') (A") (A') (A") (A') (A") (A') (A') (A') (A")
                 (A') (A') (A") (A') (A') (A") (A") (A') (A') (A")
                 (A') (A") (A') (A') (A') (A') (A')
 The electronic state is 1-A'.
 Alpha  occ. eigenvalues --  -91.72538 -15.36428 -11.09826  -8.72781  -6.40984
 Alpha  occ. eigenvalues --   -6.40725  -6.40716  -1.00273  -0.76475  -0.41387
 Alpha  occ. eigenvalues --   -0.33275  -0.30161  -0.30033  -0.13642  -0.13016
 Alpha virt. eigenvalues --    0.17523   0.19181   0.22282   0.23502   0.23917
 Alpha virt. eigenvalues --    0.24134   0.24707   0.29320   0.30237   0.31092
 Alpha virt. eigenvalues --    0.33712   0.37802   0.39839   0.42179   0.44776
 Alpha virt. eigenvalues --    0.45757   0.46457   0.53759   0.54000   0.54661
 Alpha virt. eigenvalues --    0.55495   0.59012   0.61752   0.64055   0.65554
 Alpha virt. eigenvalues --    0.70256   0.70673   0.75061   0.77065   0.77299
 Alpha virt. eigenvalues --    0.77450   0.80980   0.81571   0.87924   0.90496
 Alpha virt. eigenvalues --    0.93080   0.95695   0.96378   1.01066   1.01957
 Alpha virt. eigenvalues --    1.02355   1.07275   1.07387   1.15385   1.15890
 Alpha virt. eigenvalues --    1.16062   1.24170   1.26774   1.27979   1.28423
 Alpha virt. eigenvalues --    1.30042   1.33667   1.36607   1.38869   1.44128
 Alpha virt. eigenvalues --    1.49053   1.50144   1.55050   1.56771   1.60755
 Alpha virt. eigenvalues --    1.72581   1.74286   1.76075   1.79766   1.84811
 Alpha virt. eigenvalues --    1.90959   1.91899   2.03187   2.04516   2.07451
 Alpha virt. eigenvalues --    2.14045   2.16924   2.17364   2.27574   2.29887
 Alpha virt. eigenvalues --    2.30003   2.32939   2.40851   2.43292   2.45575
 Alpha virt. eigenvalues --    2.51065   2.55327   2.59586   2.60334   2.60863
 Alpha virt. eigenvalues --    2.60883   2.66312   2.72027   2.74368   2.83602
 Alpha virt. eigenvalues --    2.93022   2.98043   3.23439   3.29305   3.30116
 Alpha virt. eigenvalues --    3.61519   3.68300   3.69459   3.73398   3.74446
 Alpha virt. eigenvalues --    3.78485   3.90004   3.96218   3.99473   4.02095
 Alpha virt. eigenvalues --    4.10848   4.15350   4.25489   4.64313   4.70902
 Alpha virt. eigenvalues --    4.85869   4.92894   5.20255   5.20451   5.45879
 Alpha virt. eigenvalues --    5.48348   5.65989   5.67439   5.82808   5.84817
 Alpha virt. eigenvalues --    6.22823   6.25335   6.34098   6.35254   6.76114
 Alpha virt. eigenvalues --   12.00037  16.13725
          Condensed to atoms (all electrons):
               1          2          3
     1  N    6.890414   0.663189  -0.124244
     2  C    0.663189   5.101328   0.329780
     3  S   -0.124244   0.329780  16.270807
 Mulliken charges:
               1
     1  N   -0.429359
     2  C   -0.094297
     3  S   -0.476344
 Sum of Mulliken charges =  -1.00000
 Mulliken charges with hydrogens summed into heavy atoms:
               1
     1  N   -0.429359
     2  C   -0.094297
     3  S   -0.476344
 Electronic spatial extent (au):  <R**2>=            217.2148
 Charge=             -1.0000 electrons
 Dipole moment (field-independent basis, Debye):
    X=             -0.6795    Y=             -0.8505    Z=              0.0000  Tot=              1.0886
 Quadrupole moment (field-independent basis, Debye-Ang):
   XX=            -32.1192   YY=            -37.7417   ZZ=            -29.3718
   XY=             -5.2818   XZ=              0.0000   YZ=              0.0000
 Traceless Quadrupole moment (field-independent basis, Debye-Ang):
   XX=              0.9584   YY=             -4.6641   ZZ=              3.7058
   XY=             -5.2818   XZ=              0.0000   YZ=              0.0000
 Octapole moment (field-independent basis, Debye-Ang**2):
  XXX=              2.4780  YYY=            -14.1877  ZZZ=              0.0000  XYY=             -6.5082
  XXY=             -1.0106  XXZ=              0.0000  XZZ=              1.1421  YZZ=              1.8819
  YYZ=              0.0000  XYZ=              0.0000
 Hexadecapole moment (field-independent basis, Debye-Ang**3):
 XXXX=            -95.1029 YYYY=           -254.5269 ZZZZ=            -46.4112 XXXY=            -50.3250
 XXXZ=              0.0000 YYYX=            -53.1685 YYYZ=              0.0000 ZZZX=              0.0000
 ZZZY=              0.0000 XXYY=            -62.8232 XXZZ=            -23.3559 YYZZ=            -49.9901
 XXYZ=              0.0000 YYXZ=              0.0000 ZZXY=            -15.7965
 N-N= 7.086313383554D+01 E-N=-1.312258432635D+03  KE= 4.897380213360D+02
 Symmetry A'   KE= 4.487206657087D+02
 Symmetry A"   KE= 4.101735562730D+01
 No NMR shielding tensors so no spin-rotation constants.
 Leave Link  601 at Wed May  4 19:07:08 2022, MaxMem=   754974720 cpu:               0.6 elap:               0.2
 (Enter /opt/cluster/programs/g16-c.01/g16/l701.exe)
 ... and contract with generalized density number  2.
 Compute integral first derivatives.
 Leave Link  701 at Wed May  4 19:07:09 2022, MaxMem=   754974720 cpu:               1.6 elap:               0.6
 (Enter /opt/cluster/programs/g16-c.01/g16/l702.exe)
 L702 exits ... SP integral derivatives will be done elsewhere.
 Leave Link  702 at Wed May  4 19:07:09 2022, MaxMem=   754974720 cpu:               0.1 elap:               0.0
 (Enter /opt/cluster/programs/g16-c.01/g16/l703.exe)
 Integral derivatives from FoFJK, PRISM(SPDF).
 Compute integral first derivatives, UseDBF=F ICtDFT=           0.
 Calling FoFJK, ICntrl=  10002127 FMM=F ISym2X=1 I1Cent= 0 IOpClX= 0 NMat=1 NMatS=1 NMatT=0.
 FoFJK:  IHMeth= 1 ICntrl=10002127 DoSepK=F KAlg= 0 I1Cent=           0 FoldK=F
 IRaf=         0 NMat=       1 IRICut=       1 DoRegI=T DoRafI=F ISym2E= 1 IDoP0=0 IntGTp=1.
 FoFCou: FMM=F IPFlag=           0 FMFlag=      100000 FMFlg1=         800
         NFxFlg=           0 DoJE=F BraDBF=F KetDBF=F FulRan=T
         wScrn=  0.000000 ICntrl=  10002127 IOpCl=  0 I1Cent=           0 NGrid=           0
         NMat0=    1 NMatS0=      1 NMatT0=    0 NMatD0=    1 NMtDS0=    0 NMtDT0=    0
 Petite list used in FoFCou.
 Leave Link  703 at Wed May  4 19:07:15 2022, MaxMem=   754974720 cpu:              16.9 elap:               5.6
 (Enter /opt/cluster/programs/g16-c.01/g16/l716.exe)
 Dipole        =-2.21527914D-01-3.46065546D-01 0.00000000D+00
 ***** Axes restored to original set *****
 -------------------------------------------------------------------
 Center     Atomic                   Forces (Hartrees/Bohr)
 Number     Number              X              Y              Z
 -------------------------------------------------------------------
      1        7          -0.033253352   -0.000000000   -0.011934623
      2        6           0.044761940   -0.000000000   -0.014173714
      3       16          -0.011508588   -0.000000000    0.026108337
 -------------------------------------------------------------------
 Cartesian Forces:  Max     0.044761940 RMS     0.021773682
 Leave Link  716 at Wed May  4 19:07:15 2022, MaxMem=   754974720 cpu:               0.3 elap:               0.1
 (Enter /opt/cluster/programs/g16-c.01/g16/l103.exe)

 GradGradGradGradGradGradGradGradGradGradGradGradGradGradGradGradGradGrad
 Berny optimization.
 FormGI is forming the generalized inverse of G from B-inverse, IUseBI=4.
 Internal  Forces:  Max     0.074927379 RMS     0.044724304
 Search for a local minimum.
 Step number   1 out of a maximum of   20
 All quantities printed in internal units (Hartrees-Bohrs-Radians)
 RMS Force = .13905D-01 SwitMx=.10000D-02 MixMth= 1
 Mixed Optimization -- RFO/linear search
 Second derivative matrix not updated -- first step.
 The second derivative matrix:
                          R1        R2        A1
           R1           1.08759
           R2           0.00000   0.41030
           A1           0.00000   0.00000   0.25000
 ITU=  0
     Eigenvalues ---    0.41030   1.087591000.00000
 RFO step:  Lambda=-7.25104236D-04 EMin= 4.10299174D-01
 Linear search not attempted -- first point.
 Iteration  1 RMS(Cart)=  0.02058188 RMS(Int)=  0.00000276
 Iteration  2 RMS(Cart)=  0.00000317 RMS(Int)=  0.00000000
 Iteration  3 RMS(Cart)=  0.00000000 RMS(Int)=  0.00000000
 Iteration  1 RMS(Cart)=  0.00000000 RMS(Int)=  0.00000000
 ITry= 1 IFail=0 DXMaxC= 2.57D-02 DCOld= 1.00D+10 DXMaxT= 3.00D-01 DXLimC= 3.00D+00 Rises=F
 ClnCor:  largest displacement from symmetrization is 9.33D-16 for atom     1.
 Variable       Old X    -DE/DX   Delta X   Delta X   Delta X     New X
                                 (Linear)    (Quad)   (Total)
    R1        2.25323   0.01193   0.00000   0.01097   0.01097   2.26419
    R2        3.13877   0.01563   0.00000   0.03802   0.03802   3.17680
    A1        2.56563   0.07493   0.00000   0.00000   0.00000   2.56563
         Item               Value     Threshold  Converged?
 Maximum Force            0.015628     0.000450     NO 
 RMS     Force            0.013905     0.000300     NO 
 Maximum Displacement     0.025678     0.001800     NO 
 RMS     Displacement     0.020583     0.001200     NO 
 Predicted change in Energy=-3.631208D-04
 Lowest energy point so far.  Saving SCF results.
 GradGradGradGradGradGradGradGradGradGradGradGradGradGradGradGradGradGrad

 Leave Link  103 at Wed May  4 19:07:15 2022, MaxMem=   754974720 cpu:               0.6 elap:               0.3
 (Enter /opt/cluster/programs/g16-c.01/g16/l202.exe)
                          Input orientation:                          
 ---------------------------------------------------------------------
 Center     Atomic      Atomic             Coordinates (Angstroms)
 Number     Number       Type             X           Y           Z
 ---------------------------------------------------------------------
      1          7           0       -0.002812    0.000000   -1.830639
      2          6           0       -0.003606    0.000000   -0.632479
      3         16           0        0.911046    0.000000    0.778007
 ---------------------------------------------------------------------
                    Distance matrix (angstroms):
                    1          2          3
     1  N    0.000000
     2  C    1.198160   0.000000
     3  S    2.764086   1.681089   0.000000
 Stoichiometry    CNS(1-)
 Framework group  CS[SG(CNS)]
 Deg. of freedom     3
 Full point group                 CS      NOp   2
 RotChk:  IX=0 Diff= 3.96D-03
 Largest Abelian subgroup         CS      NOp   2
 Largest concise Abelian subgroup C1      NOp   1
                         Standard orientation:                         
 ---------------------------------------------------------------------
 Center     Atomic      Atomic             Coordinates (Angstroms)
 Number     Number       Type             X           Y           Z
 ---------------------------------------------------------------------
      1          7           0        0.861173    1.535871    0.000000
      2          6           0        0.000000    0.702823    0.000000
      3         16           0       -0.376763   -0.935502    0.000000
 ---------------------------------------------------------------------
 Rotational constants (GHZ):         364.6961899           6.2797325           6.1734317
 Leave Link  202 at Wed May  4 19:07:15 2022, MaxMem=   754974720 cpu:               0.2 elap:               0.1
 (Enter /opt/cluster/programs/g16-c.01/g16/l301.exe)
 Standard basis: Aug-CC-pVTZ (5D, 7F)
 Ernie: Thresh=  0.10000D-02 Tol=  0.10000D-05 Strict=F.
 Ernie:  19 primitive shells out of 124 were deleted.
 There are   114 symmetry adapted cartesian basis functions of A'  symmetry.
 There are    55 symmetry adapted cartesian basis functions of A"  symmetry.
 There are    93 symmetry adapted basis functions of A'  symmetry.
 There are    49 symmetry adapted basis functions of A"  symmetry.
   142 basis functions,   258 primitive gaussians,   169 cartesian basis functions
    15 alpha electrons       15 beta electrons
       nuclear repulsion energy        70.2108748076 Hartrees.
 IExCor=    0 DFT=F Ex=HF Corr=None ExCW=0 ScaHFX=  1.000000
 ScaDFX=  1.000000  1.000000  1.000000  1.000000 ScalE2=  1.000000  1.000000
 IRadAn=      5 IRanWt=     -1 IRanGd=            0 ICorTp=0 IEmpDi=  4
 NAtoms=    3 NActive=    3 NUniq=    3 SFac= 1.00D+00 NAtFMM=   60 NAOKFM=F Big=F
 Integral buffers will be    131072 words long.
 Raffenetti 1 integral format.
 Two-electron integral symmetry is turned on.
 Leave Link  301 at Wed May  4 19:07:15 2022, MaxMem=   754974720 cpu:               0.3 elap:               0.1
 (Enter /opt/cluster/programs/g16-c.01/g16/l302.exe)
 NPDir=0 NMtPBC=     1 NCelOv=     1 NCel=       1 NClECP=     1 NCelD=      1
         NCelK=      1 NCelE2=     1 NClLst=     1 CellRange=     0.0.
 One-electron integrals computed using PRISM.
 One-electron integral symmetry used in STVInt
 NBasis=   142 RedAO= T EigKep=  1.09D-04  NBF=    93    49
 NBsUse=   142 1.00D-06 EigRej= -1.00D+00 NBFU=    93    49
 Leave Link  302 at Wed May  4 19:07:16 2022, MaxMem=   754974720 cpu:               0.6 elap:               0.2
 (Enter /opt/cluster/programs/g16-c.01/g16/l303.exe)
 DipDrv:  MaxL=1.
 Leave Link  303 at Wed May  4 19:07:16 2022, MaxMem=   754974720 cpu:               0.1 elap:               0.0
 (Enter /opt/cluster/programs/g16-c.01/g16/l401.exe)
 Initial guess from the checkpoint file:  "gaussian_8_scn.chk"
 B after Tr=     0.000000   -0.000000   -0.000000
         Rot=    0.999999   -0.000000   -0.000000   -0.001441 Ang=  -0.17 deg.
 Guess basis will be translated and rotated to current coordinates.
 JPrj=2 DoOrth=T DoCkMO=T.
 Initial guess orbital symmetries:
       Occupied  (A') (A') (A') (A') (A') (A") (A') (A') (A') (A')
                 (A') (A") (A') (A") (A')
       Virtual   (A') (A') (A') (A") (A') (A") (A') (A") (A') (A')
                 (A') (A') (A") (A') (A') (A") (A') (A') (A") (A')
                 (A") (A') (A') (A") (A') (A') (A") (A') (A') (A')
                 (A") (A') (A") (A') (A") (A') (A") (A') (A") (A')
                 (A') (A') (A") (A') (A') (A") (A') (A") (A') (A")
                 (A') (A') (A") (A') (A') (A") (A') (A") (A') (A')
                 (A') (A") (A') (A") (A') (A") (A') (A") (A') (A')
                 (A') (A") (A') (A") (A") (A') (A') (A') (A') (A")
                 (A") (A') (A") (A') (A") (A') (A') (A") (A') (A')
                 (A') (A") (A') (A") (A') (A') (A") (A') (A") (A')
                 (A') (A") (A') (A") (A') (A") (A') (A') (A') (A")
                 (A') (A') (A") (A') (A') (A") (A") (A') (A') (A")
                 (A') (A") (A') (A') (A') (A') (A')
 The electronic state of the initial guess is 1-A'.
 Generating alternative initial guess.
 ExpMin= 3.51D-02 ExpMax= 3.74D+05 ExpMxC= 1.18D+03 IAcc=3 IRadAn=         5 AccDes= 0.00D+00
 Harris functional with IExCor=  205 and IRadAn=       5 diagonalized for initial guess.
 HarFok:  IExCor=  205 AccDes= 0.00D+00 IRadAn=         5 IDoV= 1 UseB2=F ITyADJ=14
 ICtDFT=  3500011 ScaDFX=  1.000000  1.000000  1.000000  1.000000
 FoFCou: FMM=F IPFlag=           0 FMFlag=      100000 FMFlg1=           0
         NFxFlg=           0 DoJE=T BraDBF=F KetDBF=T FulRan=T
         wScrn=  0.000000 ICntrl=       500 IOpCl=  0 I1Cent=   200000004 NGrid=           0
         NMat0=    1 NMatS0=      1 NMatT0=    0 NMatD0=    1 NMtDS0=    0 NMtDT0=    0
 Petite list used in FoFCou.
 Harris En= -489.743294158069    
 Leave Link  401 at Wed May  4 19:07:17 2022, MaxMem=   754974720 cpu:               4.7 elap:               1.6
 (Enter /opt/cluster/programs/g16-c.01/g16/l502.exe)
 Keep R1 ints in memory in symmetry-blocked form, NReq=77616006.
 FoFCou: FMM=F IPFlag=           0 FMFlag=           0 FMFlg1=           0
         NFxFlg=           0 DoJE=F BraDBF=F KetDBF=F FulRan=T
         wScrn=  0.000000 ICntrl=       600 IOpCl=  0 I1Cent=           0 NGrid=           0
         NMat0=    1 NMatS0=  10153 NMatT0=    0 NMatD0=    1 NMtDS0=    0 NMtDT0=    0
 Petite list used in FoFCou.
 Closed shell SCF:
 Using DIIS extrapolation, IDIIS=  1040.
 NGot=   754974720 LenX=   728846748 LenY=   728817746
 Requested convergence on RMS density matrix=1.00D-08 within 200 cycles.
 Requested convergence on MAX density matrix=1.00D-06.
 Requested convergence on             energy=1.00D-06.
 No special actions if energy rises.

 Cycle   1  Pass 1  IDiag  1:
 E= -489.919109774451    
 DIIS: error= 8.69D-04 at cycle   1 NSaved=   1.
 NSaved= 1 IEnMin= 1 EnMin= -489.919109774451     IErMin= 1 ErrMin= 8.69D-04
 ErrMax= 8.69D-04  0.00D+00 EMaxC= 1.00D-01 BMatC= 1.14D-04 BMatP= 1.14D-04
 IDIUse=3 WtCom= 9.91D-01 WtEn= 8.69D-03
 Coeff-Com:  0.100D+01
 Coeff-En:   0.100D+01
 Coeff:      0.100D+01
 Gap=     0.310 Goal=   None    Shift=    0.000
 RMSDP=1.07D-04 MaxDP=2.60D-03              OVMax= 3.65D-03

 Cycle   2  Pass 1  IDiag  1:
 E= -489.919240016519     Delta-E=       -0.000130242068 Rises=F Damp=F
 DIIS: error= 5.43D-04 at cycle   2 NSaved=   2.
 NSaved= 2 IEnMin= 2 EnMin= -489.919240016519     IErMin= 2 ErrMin= 5.43D-04
 ErrMax= 5.43D-04  0.00D+00 EMaxC= 1.00D-01 BMatC= 1.52D-05 BMatP= 1.14D-04
 IDIUse=3 WtCom= 9.95D-01 WtEn= 5.43D-03
 Coeff-Com:  0.126D+00 0.874D+00
 Coeff-En:   0.000D+00 0.100D+01
 Coeff:      0.125D+00 0.875D+00
 Gap=     0.307 Goal=   None    Shift=    0.000
 RMSDP=3.35D-05 MaxDP=8.50D-04 DE=-1.30D-04 OVMax= 1.90D-03

 Cycle   3  Pass 1  IDiag  1:
 E= -489.919257701961     Delta-E=       -0.000017685443 Rises=F Damp=F
 DIIS: error= 3.19D-04 at cycle   3 NSaved=   3.
 NSaved= 3 IEnMin= 3 EnMin= -489.919257701961     IErMin= 3 ErrMin= 3.19D-04
 ErrMax= 3.19D-04  0.00D+00 EMaxC= 1.00D-01 BMatC= 4.24D-06 BMatP= 1.52D-05
 IDIUse=3 WtCom= 9.97D-01 WtEn= 3.19D-03
 Coeff-Com: -0.747D-01 0.269D+00 0.805D+00
 Coeff-En:   0.000D+00 0.000D+00 0.100D+01
 Coeff:     -0.744D-01 0.268D+00 0.806D+00
 Gap=     0.307 Goal=   None    Shift=    0.000
 RMSDP=1.17D-05 MaxDP=2.87D-04 DE=-1.77D-05 OVMax= 9.15D-04

 Cycle   4  Pass 1  IDiag  1:
 E= -489.919263288652     Delta-E=       -0.000005586691 Rises=F Damp=F
 DIIS: error= 9.15D-05 at cycle   4 NSaved=   4.
 NSaved= 4 IEnMin= 4 EnMin= -489.919263288652     IErMin= 4 ErrMin= 9.15D-05
 ErrMax= 9.15D-05  0.00D+00 EMaxC= 1.00D-01 BMatC= 5.44D-07 BMatP= 4.24D-06
 IDIUse=1 WtCom= 1.00D+00 WtEn= 0.00D+00
 Coeff-Com: -0.326D-01-0.222D-01 0.238D+00 0.817D+00
 Coeff:     -0.326D-01-0.222D-01 0.238D+00 0.817D+00
 Gap=     0.307 Goal=   None    Shift=    0.000
 RMSDP=6.37D-06 MaxDP=1.31D-04 DE=-5.59D-06 OVMax= 4.31D-04

 Cycle   5  Pass 1  IDiag  1:
 E= -489.919264251311     Delta-E=       -0.000000962659 Rises=F Damp=F
 DIIS: error= 3.58D-05 at cycle   5 NSaved=   5.
 NSaved= 5 IEnMin= 5 EnMin= -489.919264251311     IErMin= 5 ErrMin= 3.58D-05
 ErrMax= 3.58D-05  0.00D+00 EMaxC= 1.00D-01 BMatC= 8.41D-08 BMatP= 5.44D-07
 IDIUse=1 WtCom= 1.00D+00 WtEn= 0.00D+00
 Coeff-Com:  0.132D-01-0.633D-01-0.139D+00 0.107D+00 0.108D+01
 Coeff:      0.132D-01-0.633D-01-0.139D+00 0.107D+00 0.108D+01
 Gap=     0.307 Goal=   None    Shift=    0.000
 RMSDP=4.16D-06 MaxDP=1.11D-04 DE=-9.63D-07 OVMax= 2.51D-04

 Cycle   6  Pass 1  IDiag  1:
 E= -489.919264489972     Delta-E=       -0.000000238661 Rises=F Damp=F
 DIIS: error= 7.82D-06 at cycle   6 NSaved=   6.
 NSaved= 6 IEnMin= 6 EnMin= -489.919264489972     IErMin= 6 ErrMin= 7.82D-06
 ErrMax= 7.82D-06  0.00D+00 EMaxC= 1.00D-01 BMatC= 6.19D-09 BMatP= 8.41D-08
 IDIUse=1 WtCom= 1.00D+00 WtEn= 0.00D+00
 Coeff-Com:  0.306D-02 0.495D-02-0.260D-01-0.715D-01-0.273D-01 0.112D+01
 Coeff:      0.306D-02 0.495D-02-0.260D-01-0.715D-01-0.273D-01 0.112D+01
 Gap=     0.307 Goal=   None    Shift=    0.000
 RMSDP=1.35D-06 MaxDP=3.96D-05 DE=-2.39D-07 OVMax= 9.30D-05

 Cycle   7  Pass 1  IDiag  1:
 E= -489.919264513132     Delta-E=       -0.000000023160 Rises=F Damp=F
 DIIS: error= 4.05D-06 at cycle   7 NSaved=   7.
 NSaved= 7 IEnMin= 7 EnMin= -489.919264513132     IErMin= 7 ErrMin= 4.05D-06
 ErrMax= 4.05D-06  0.00D+00 EMaxC= 1.00D-01 BMatC= 9.65D-10 BMatP= 6.19D-09
 IDIUse=1 WtCom= 1.00D+00 WtEn= 0.00D+00
 Coeff-Com: -0.156D-02 0.958D-02 0.134D-01-0.121D-01-0.165D+00 0.977D-01
 Coeff-Com:  0.106D+01
 Coeff:     -0.156D-02 0.958D-02 0.134D-01-0.121D-01-0.165D+00 0.977D-01
 Coeff:      0.106D+01
 Gap=     0.307 Goal=   None    Shift=    0.000
 RMSDP=5.75D-07 MaxDP=2.08D-05 DE=-2.32D-08 OVMax= 3.23D-05

 Cycle   8  Pass 1  IDiag  1:
 E= -489.919264515977     Delta-E=       -0.000000002845 Rises=F Damp=F
 DIIS: error= 9.58D-07 at cycle   8 NSaved=   8.
 NSaved= 8 IEnMin= 8 EnMin= -489.919264515977     IErMin= 8 ErrMin= 9.58D-07
 ErrMax= 9.58D-07  0.00D+00 EMaxC= 1.00D-01 BMatC= 6.35D-11 BMatP= 9.65D-10
 IDIUse=1 WtCom= 1.00D+00 WtEn= 0.00D+00
 Coeff-Com:  0.183D-03-0.226D-02-0.191D-02 0.868D-02 0.337D-01-0.731D-01
 Coeff-Com: -0.305D+00 0.134D+01
 Coeff:      0.183D-03-0.226D-02-0.191D-02 0.868D-02 0.337D-01-0.731D-01
 Coeff:     -0.305D+00 0.134D+01
 Gap=     0.307 Goal=   None    Shift=    0.000
 RMSDP=2.21D-07 MaxDP=9.35D-06 DE=-2.85D-09 OVMax= 1.26D-05

 Cycle   9  Pass 1  IDiag  1:
 E= -489.919264516274     Delta-E=       -0.000000000297 Rises=F Damp=F
 DIIS: error= 4.55D-07 at cycle   9 NSaved=   9.
 NSaved= 9 IEnMin= 9 EnMin= -489.919264516274     IErMin= 9 ErrMin= 4.55D-07
 ErrMax= 4.55D-07  0.00D+00 EMaxC= 1.00D-01 BMatC= 9.80D-12 BMatP= 6.35D-11
 IDIUse=1 WtCom= 1.00D+00 WtEn= 0.00D+00
 Coeff-Com:  0.109D-03-0.320D-03-0.934D-03-0.497D-03 0.730D-02 0.109D-01
 Coeff-Com: -0.160D-01-0.430D+00 0.143D+01
 Coeff:      0.109D-03-0.320D-03-0.934D-03-0.497D-03 0.730D-02 0.109D-01
 Coeff:     -0.160D-01-0.430D+00 0.143D+01
 Gap=     0.307 Goal=   None    Shift=    0.000
 RMSDP=8.87D-08 MaxDP=3.43D-06 DE=-2.97D-10 OVMax= 6.03D-06

 Cycle  10  Pass 1  IDiag  1:
 E= -489.919264516337     Delta-E=       -0.000000000063 Rises=F Damp=F
 DIIS: error= 2.67D-07 at cycle  10 NSaved=  10.
 NSaved=10 IEnMin=10 EnMin= -489.919264516337     IErMin=10 ErrMin= 2.67D-07
 ErrMax= 2.67D-07  0.00D+00 EMaxC= 1.00D-01 BMatC= 2.05D-12 BMatP= 9.80D-12
 IDIUse=1 WtCom= 1.00D+00 WtEn= 0.00D+00
 Coeff-Com: -0.384D-04 0.343D-03 0.289D-03-0.949D-03-0.643D-02 0.863D-02
 Coeff-Com:  0.471D-01-0.100D+00-0.336D+00 0.139D+01
 Coeff:     -0.384D-04 0.343D-03 0.289D-03-0.949D-03-0.643D-02 0.863D-02
 Coeff:      0.471D-01-0.100D+00-0.336D+00 0.139D+01
 Gap=     0.307 Goal=   None    Shift=    0.000
 RMSDP=3.41D-08 MaxDP=9.56D-07 DE=-6.29D-11 OVMax= 2.91D-06

 Cycle  11  Pass 1  IDiag  1:
 E= -489.919264516353     Delta-E=       -0.000000000017 Rises=F Damp=F
 DIIS: error= 1.31D-07 at cycle  11 NSaved=  11.
 NSaved=11 IEnMin=11 EnMin= -489.919264516353     IErMin=11 ErrMin= 1.31D-07
 ErrMax= 1.31D-07  0.00D+00 EMaxC= 1.00D-01 BMatC= 5.04D-13 BMatP= 2.05D-12
 IDIUse=1 WtCom= 1.00D+00 WtEn= 0.00D+00
 Coeff-Com: -0.654D-05-0.725D-04 0.933D-04 0.506D-03 0.112D-02-0.564D-02
 Coeff-Com: -0.153D-01 0.123D+00-0.125D+00-0.687D+00 0.171D+01
 Coeff:     -0.654D-05-0.725D-04 0.933D-04 0.506D-03 0.112D-02-0.564D-02
 Coeff:     -0.153D-01 0.123D+00-0.125D+00-0.687D+00 0.171D+01
 Gap=     0.307 Goal=   None    Shift=    0.000
 RMSDP=1.79D-08 MaxDP=4.05D-07 DE=-1.66D-11 OVMax= 1.66D-06

 Cycle  12  Pass 1  IDiag  1:
 E= -489.919264516358     Delta-E=       -0.000000000005 Rises=F Damp=F
 DIIS: error= 4.17D-08 at cycle  12 NSaved=  12.
 NSaved=12 IEnMin=12 EnMin= -489.919264516358     IErMin=12 ErrMin= 4.17D-08
 ErrMax= 4.17D-08  0.00D+00 EMaxC= 1.00D-01 BMatC= 7.68D-14 BMatP= 5.04D-13
 IDIUse=1 WtCom= 1.00D+00 WtEn= 0.00D+00
 Coeff-Com:  0.112D-04-0.590D-04-0.895D-04 0.758D-04 0.114D-02-0.614D-03
 Coeff-Com: -0.445D-02-0.240D-01 0.152D+00-0.145D+00-0.560D+00 0.158D+01
 Coeff:      0.112D-04-0.590D-04-0.895D-04 0.758D-04 0.114D-02-0.614D-03
 Coeff:     -0.445D-02-0.240D-01 0.152D+00-0.145D+00-0.560D+00 0.158D+01
 Gap=     0.307 Goal=   None    Shift=    0.000
 RMSDP=7.35D-09 MaxDP=1.84D-07 DE=-4.66D-12 OVMax= 6.35D-07

 SCF Done:  E(RHF) =  -489.919264516     A.U. after   12 cycles
            NFock= 12  Conv=0.73D-08     -V/T= 2.0005
 KE= 4.896658960058D+02 PE=-1.310864622258D+03 EE= 2.610685869284D+02
 Leave Link  502 at Wed May  4 19:07:20 2022, MaxMem=   754974720 cpu:              11.9 elap:               3.2
 (Enter /opt/cluster/programs/g16-c.01/g16/l801.exe)
 ExpMin= 3.51D-02 ExpMax= 3.74D+05 ExpMxC= 1.18D+03 IAcc=3 IRadAn=         5 AccDes= 0.00D+00
 HarFok:  IExCor=  205 AccDes= 0.00D+00 IRadAn=         5 IDoV=-2 UseB2=F ITyADJ=14
 ICtDFT= 12500011 ScaDFX=  1.000000  1.000000  1.000000  1.000000
 Largest valence mixing into a core orbital is  5.38D-04
 Largest core mixing into a valence orbital is  1.41D-04
 Range of M.O.s used for correlation:     8   142
 NBasis=   142 NAE=    15 NBE=    15 NFC=     7 NFV=     0
 NROrb=    135 NOA=     8 NOB=     8 NVA=   127 NVB=   127

 **** Warning!!: The largest alpha MO coefficient is  0.18588495D+02

 Leave Link  801 at Wed May  4 19:07:21 2022, MaxMem=   754974720 cpu:               1.4 elap:               0.5
 (Enter /opt/cluster/programs/g16-c.01/g16/l906.exe)
 Frozen-core derivative calculation, NFC=   7 NFV=   0.
 FulOut=F Deriv=T AODrv=T NAtomX=     3
   MMem=          74  MDisk=           8 MDiskD=           8
  W3Min=      359970 MinDsk=      723803 NBas6D=         169
 NBas2D=       14809    NTT=       14365    LW2=     3500000
    MDV=   754677587 MDiskM=       22268 NBas2p=       14795
 Fully direct method using O(ONN) memory.
 IMap=   1   2   3   4   5   6   7   8   9  10  11  12  13  14  15
 JobTyp=1 Pass  1:  I=   8 to  15 NPSUse=  4 ParTrn=T ParDer=T DoDerP=T.
 Spin components of T(2) and E(2):
     alpha-alpha T2 =       0.2954824529D-01 E2=     -0.6980412420D-01
     alpha-beta  T2 =       0.1565138964D+00 E2=     -0.3981992571D+00
     beta-beta   T2 =       0.2954824529D-01 E2=     -0.6980412420D-01
 The integrals were generated   1 times.
 ANorm=    0.1102547227D+01
 E2 =    -0.5378075055D+00 EUMP2 =    -0.49045707202187D+03
 Leave Link  906 at Wed May  4 19:07:29 2022, MaxMem=   754974720 cpu:              31.2 elap:               7.8
 (Enter /opt/cluster/programs/g16-c.01/g16/l1002.exe)
 Minotr:  Closed shell wavefunction.
          Computing MP2/KS-MP2 derivatives.
          Using Z-Vector for PSCF gradient.
          Skipping F1 and S1 gradient terms here.
          IDoAtm=111
          Frozen-core window.
          Direct CPHF calculation.
          Differentiating once with respect to electric field.
                with respect to dipole field.
          Differentiating once with respect to nuclear coordinates.
          Using symmetry in CPHF.
          Requested convergence is 1.0D-10 RMS, and 1.0D-09 maximum.
          NewPWx=F KeepS1=T KeepF1=T KeepIn=T MapXYZ=F SortEE=F KeepMc=T.
 Keep R1 ints in memory in symmetry-blocked form, NReq=77616884.
 FoFCou: FMM=F IPFlag=           0 FMFlag=           0 FMFlg1=           0
         NFxFlg=           0 DoJE=F BraDBF=F KetDBF=F FulRan=T
         wScrn=  0.000000 ICntrl=       600 IOpCl=  0 I1Cent=           0 NGrid=           0
         NMat0=    1 NMatS0=  10153 NMatT0=    0 NMatD0=    1 NMtDS0=    0 NMtDT0=    0
 Petite list used in FoFCou.
          MDV=     754974720 using IRadAn=       5.
          Solving linear equations separately, MaxMat=       0.
          There are     1 degrees of freedom in the 1st order CPHF.  IDoFFX=0 NUNeed=     1.
 LinEq1:  Iter=  0 NonCon=     1 RMS=5.12D-03 Max=9.01D-02 NDo=     1
 AX will form     1 AO Fock derivatives at one time.
 LinEq1:  Iter=  1 NonCon=     1 RMS=1.78D-03 Max=1.80D-02 NDo=     1
 LinEq1:  Iter=  2 NonCon=     1 RMS=6.75D-04 Max=9.80D-03 NDo=     1
 LinEq1:  Iter=  3 NonCon=     1 RMS=3.77D-04 Max=5.87D-03 NDo=     1
 LinEq1:  Iter=  4 NonCon=     1 RMS=2.13D-04 Max=5.73D-03 NDo=     1
 LinEq1:  Iter=  5 NonCon=     1 RMS=7.75D-05 Max=7.92D-04 NDo=     1
 LinEq1:  Iter=  6 NonCon=     1 RMS=2.16D-05 Max=2.52D-04 NDo=     1
 LinEq1:  Iter=  7 NonCon=     1 RMS=5.21D-06 Max=6.41D-05 NDo=     1
 LinEq1:  Iter=  8 NonCon=     1 RMS=1.15D-06 Max=1.05D-05 NDo=     1
 LinEq1:  Iter=  9 NonCon=     1 RMS=3.30D-07 Max=4.60D-06 NDo=     1
 LinEq1:  Iter= 10 NonCon=     1 RMS=7.42D-08 Max=8.45D-07 NDo=     1
 LinEq1:  Iter= 11 NonCon=     1 RMS=1.51D-08 Max=1.19D-07 NDo=     1
 LinEq1:  Iter= 12 NonCon=     1 RMS=3.06D-09 Max=3.82D-08 NDo=     1
 LinEq1:  Iter= 13 NonCon=     1 RMS=5.22D-10 Max=6.59D-09 NDo=     1
 LinEq1:  Iter= 14 NonCon=     1 RMS=8.98D-11 Max=1.03D-09 NDo=     1
 LinEq1:  Iter= 15 NonCon=     0 RMS=1.57D-11 Max=1.31D-10 NDo=     1
 Linear equations converged to 1.000D-10 1.000D-09 after    15 iterations.
 End of Minotr F.D. properties file   721 does not exist.
 End of Minotr F.D. properties file   722 does not exist.
 End of Minotr F.D. properties file   788 does not exist.
 Leave Link 1002 at Wed May  4 19:07:32 2022, MaxMem=   754974720 cpu:              13.2 elap:               3.6
 (Enter /opt/cluster/programs/g16-c.01/g16/l701.exe)
 ... and contract with generalized density number  2.
 Compute integral first derivatives.
 Leave Link  701 at Wed May  4 19:07:33 2022, MaxMem=   754974720 cpu:               1.8 elap:               0.6
 (Enter /opt/cluster/programs/g16-c.01/g16/l702.exe)
 L702 exits ... SP integral derivatives will be done elsewhere.
 Leave Link  702 at Wed May  4 19:07:33 2022, MaxMem=   754974720 cpu:               0.1 elap:               0.0
 (Enter /opt/cluster/programs/g16-c.01/g16/l703.exe)
 Integral derivatives from FoFJK, PRISM(SPDF).
 Compute integral first derivatives, UseDBF=F ICtDFT=           0.
 Calling FoFJK, ICntrl=  10002127 FMM=F ISym2X=1 I1Cent= 0 IOpClX= 0 NMat=1 NMatS=1 NMatT=0.
 FoFJK:  IHMeth= 1 ICntrl=10002127 DoSepK=F KAlg= 0 I1Cent=           0 FoldK=F
 IRaf=         0 NMat=       1 IRICut=       1 DoRegI=T DoRafI=F ISym2E= 1 IDoP0=0 IntGTp=1.
 FoFCou: FMM=F IPFlag=           0 FMFlag=      100000 FMFlg1=         800
         NFxFlg=           0 DoJE=F BraDBF=F KetDBF=F FulRan=T
         wScrn=  0.000000 ICntrl=  10002127 IOpCl=  0 I1Cent=           0 NGrid=           0
         NMat0=    1 NMatS0=      1 NMatT0=    0 NMatD0=    1 NMtDS0=    0 NMtDT0=    0
 Petite list used in FoFCou.
 Leave Link  703 at Wed May  4 19:07:37 2022, MaxMem=   754974720 cpu:              16.2 elap:               4.1
 (Enter /opt/cluster/programs/g16-c.01/g16/l716.exe)
 Dipole        =-2.15164204D-01-3.35121683D-01 0.00000000D+00
 ***** Axes restored to original set *****
 -------------------------------------------------------------------
 Center     Atomic                   Forces (Hartrees/Bohr)
 Number     Number              X              Y              Z
 -------------------------------------------------------------------
      1        7          -0.031930238   -0.000000000   -0.000071578
      2        6           0.049372778   -0.000000000   -0.014857757
      3       16          -0.017442540   -0.000000000    0.014929336
 -------------------------------------------------------------------
 Cartesian Forces:  Max     0.049372778 RMS     0.021615572
 Leave Link  716 at Wed May  4 19:07:37 2022, MaxMem=   754974720 cpu:               0.1 elap:               0.0
 (Enter /opt/cluster/programs/g16-c.01/g16/l103.exe)

 GradGradGradGradGradGradGradGradGradGradGradGradGradGradGradGradGradGrad
 Berny optimization.
 Using GEDIIS/GDIIS optimizer.
 FormGI is forming the generalized inverse of G from B-inverse, IUseBI=4.
 Internal  Forces:  Max     0.072296371 RMS     0.041777127
 Search for a local minimum.
 Step number   2 out of a maximum of   20
 All quantities printed in internal units (Hartrees-Bohrs-Radians)
 RMS Force = .21471D-02 SwitMx=.10000D-02 MixMth= 1
 Mixed Optimization -- RFO/linear search
 Update second derivatives using D2CorX and points    1    2
 DE= -4.16D-04 DEPred=-3.63D-04 R= 1.14D+00
 TightC=F SS=  1.41D+00  RLast= 3.96D-02 DXNew= 5.0454D-01 1.1872D-01
 Trust test= 1.14D+00 RLast= 3.96D-02 DXMaxT set to 3.00D-01
 The second derivative matrix:
                          R1        R2        A1
           R1           1.12298
           R2          -0.01132   0.33444
           A1           0.05133   0.05439   0.26136
 ITU=  1  0
 Use linear search instead of GDIIS.
     Eigenvalues ---    0.33428   1.123141000.00000
 RFO step:  Lambda=-5.93022449D-06 EMin= 3.34280551D-01
 Quartic linear search produced a step of  0.20173.
 Iteration  1 RMS(Cart)=  0.00451689 RMS(Int)=  0.00000046
 Iteration  2 RMS(Cart)=  0.00000052 RMS(Int)=  0.00000000
 Iteration  1 RMS(Cart)=  0.00000000 RMS(Int)=  0.00000000
 ITry= 1 IFail=0 DXMaxC= 5.73D-03 DCOld= 1.00D+10 DXMaxT= 3.00D-01 DXLimC= 3.00D+00 Rises=F
 ClnCor:  largest displacement from symmetrization is 2.29D-16 for atom     1.
 Variable       Old X    -DE/DX   Delta X   Delta X   Delta X     New X
                                 (Linear)    (Quad)   (Total)
    R1        2.26419   0.00005   0.00221  -0.00203   0.00018   2.26438
    R2        3.17680   0.00304   0.00767   0.00191   0.00958   3.18638
    A1        2.56563   0.07230   0.00000   0.00000   0.00000   2.56563
         Item               Value     Threshold  Converged?
 Maximum Force            0.003036     0.000450     NO 
 RMS     Force            0.002147     0.000300     NO 
 Maximum Displacement     0.005734     0.001800     NO 
 RMS     Displacement     0.004517     0.001200     NO 
 Predicted change in Energy=-1.374738D-05
 Lowest energy point so far.  Saving SCF results.
 GradGradGradGradGradGradGradGradGradGradGradGradGradGradGradGradGradGrad

 Leave Link  103 at Wed May  4 19:07:37 2022, MaxMem=   754974720 cpu:               0.0 elap:               0.0
 (Enter /opt/cluster/programs/g16-c.01/g16/l202.exe)
                          Input orientation:                          
 ---------------------------------------------------------------------
 Center     Atomic      Atomic             Coordinates (Angstroms)
 Number     Number       Type             X           Y           Z
 ---------------------------------------------------------------------
      1          7           0       -0.003388    0.000000   -1.832204
      2          6           0       -0.004506    0.000000   -0.633947
      3         16           0        0.912523    0.000000    0.781042
 ---------------------------------------------------------------------
                    Distance matrix (angstroms):
                    1          2          3
     1  N    0.000000
     2  C    1.198258   0.000000
     3  S    2.769106   1.686160   0.000000
 Stoichiometry    CNS(1-)
 Framework group  CS[SG(CNS)]
 Deg. of freedom     3
 Full point group                 CS      NOp   2
 RotChk:  IX=0 Diff= 1.60D-03
 Largest Abelian subgroup         CS      NOp   2
 Largest concise Abelian subgroup C1      NOp   1
                         Standard orientation:                         
 ---------------------------------------------------------------------
 Center     Atomic      Atomic             Coordinates (Angstroms)
 Number     Number       Type             X           Y           Z
 ---------------------------------------------------------------------
      1          7           0        0.860522    1.539394    0.000000
      2          6           0        0.000000    0.705534    0.000000
      3         16           0       -0.376478   -0.938060   -0.000000
 ---------------------------------------------------------------------
 Rotational constants (GHZ):         363.9113090           6.2544567           6.1487791
 Leave Link  202 at Wed May  4 19:07:37 2022, MaxMem=   754974720 cpu:               0.0 elap:               0.0
 (Enter /opt/cluster/programs/g16-c.01/g16/l301.exe)
 Standard basis: Aug-CC-pVTZ (5D, 7F)
 Ernie: Thresh=  0.10000D-02 Tol=  0.10000D-05 Strict=F.
 Ernie:  19 primitive shells out of 124 were deleted.
 There are   114 symmetry adapted cartesian basis functions of A'  symmetry.
 There are    55 symmetry adapted cartesian basis functions of A"  symmetry.
 There are    93 symmetry adapted basis functions of A'  symmetry.
 There are    49 symmetry adapted basis functions of A"  symmetry.
   142 basis functions,   258 primitive gaussians,   169 cartesian basis functions
    15 alpha electrons       15 beta electrons
       nuclear repulsion energy        70.0795952103 Hartrees.
 IExCor=    0 DFT=F Ex=HF Corr=None ExCW=0 ScaHFX=  1.000000
 ScaDFX=  1.000000  1.000000  1.000000  1.000000 ScalE2=  1.000000  1.000000
 IRadAn=      5 IRanWt=     -1 IRanGd=            0 ICorTp=0 IEmpDi=  4
 NAtoms=    3 NActive=    3 NUniq=    3 SFac= 1.00D+00 NAtFMM=   60 NAOKFM=F Big=F
 Integral buffers will be    131072 words long.
 Raffenetti 1 integral format.
 Two-electron integral symmetry is turned on.
 Leave Link  301 at Wed May  4 19:07:37 2022, MaxMem=   754974720 cpu:               0.2 elap:               0.1
 (Enter /opt/cluster/programs/g16-c.01/g16/l302.exe)
 NPDir=0 NMtPBC=     1 NCelOv=     1 NCel=       1 NClECP=     1 NCelD=      1
         NCelK=      1 NCelE2=     1 NClLst=     1 CellRange=     0.0.
 One-electron integrals computed using PRISM.
 One-electron integral symmetry used in STVInt
 NBasis=   142 RedAO= T EigKep=  1.10D-04  NBF=    93    49
 NBsUse=   142 1.00D-06 EigRej= -1.00D+00 NBFU=    93    49
 Leave Link  302 at Wed May  4 19:07:38 2022, MaxMem=   754974720 cpu:               0.6 elap:               0.2
 (Enter /opt/cluster/programs/g16-c.01/g16/l303.exe)
 DipDrv:  MaxL=1.
 Leave Link  303 at Wed May  4 19:07:38 2022, MaxMem=   754974720 cpu:               0.1 elap:               0.0
 (Enter /opt/cluster/programs/g16-c.01/g16/l401.exe)
 Initial guess from the checkpoint file:  "gaussian_8_scn.chk"
 B after Tr=    -0.000000    0.000000   -0.000000
         Rot=    1.000000   -0.000000    0.000000   -0.000584 Ang=  -0.07 deg.
 Guess basis will be translated and rotated to current coordinates.
 JPrj=2 DoOrth=T DoCkMO=T.
 Initial guess orbital symmetries:
       Occupied  (A') (A') (A') (A') (A') (A") (A') (A') (A') (A')
                 (A') (A") (A') (A") (A')
       Virtual   (A') (A') (A') (A") (A') (A") (A') (A") (A') (A')
                 (A') (A') (A") (A') (A') (A") (A') (A') (A") (A')
                 (A") (A') (A') (A") (A') (A') (A") (A') (A') (A')
                 (A") (A') (A") (A') (A") (A') (A") (A') (A") (A')
                 (A') (A') (A") (A') (A') (A") (A') (A") (A') (A")
                 (A') (A') (A") (A') (A') (A") (A') (A") (A') (A')
                 (A') (A") (A') (A") (A') (A") (A') (A") (A') (A')
                 (A') (A") (A') (A") (A") (A') (A') (A') (A') (A")
                 (A") (A') (A") (A') (A') (A") (A') (A") (A') (A')
                 (A') (A") (A') (A") (A') (A') (A") (A') (A") (A')
                 (A') (A") (A') (A") (A') (A") (A') (A') (A') (A")
                 (A') (A') (A") (A') (A') (A") (A") (A') (A') (A")
                 (A') (A") (A') (A') (A') (A') (A')
 The electronic state of the initial guess is 1-A'.
 Leave Link  401 at Wed May  4 19:07:38 2022, MaxMem=   754974720 cpu:               0.5 elap:               0.1
 (Enter /opt/cluster/programs/g16-c.01/g16/l502.exe)
 Keep R1 ints in memory in symmetry-blocked form, NReq=77616006.
 FoFCou: FMM=F IPFlag=           0 FMFlag=           0 FMFlg1=           0
         NFxFlg=           0 DoJE=F BraDBF=F KetDBF=F FulRan=T
         wScrn=  0.000000 ICntrl=       600 IOpCl=  0 I1Cent=           0 NGrid=           0
         NMat0=    1 NMatS0=  10153 NMatT0=    0 NMatD0=    1 NMtDS0=    0 NMtDT0=    0
 Petite list used in FoFCou.
 Closed shell SCF:
 Using DIIS extrapolation, IDIIS=  1040.
 NGot=   754974720 LenX=   728846748 LenY=   728817746
 Requested convergence on RMS density matrix=1.00D-08 within 200 cycles.
 Requested convergence on MAX density matrix=1.00D-06.
 Requested convergence on             energy=1.00D-06.
 No special actions if energy rises.

 Cycle   1  Pass 1  IDiag  1:
 E= -489.919338838767    
 DIIS: error= 2.28D-04 at cycle   1 NSaved=   1.
 NSaved= 1 IEnMin= 1 EnMin= -489.919338838767     IErMin= 1 ErrMin= 2.28D-04
 ErrMax= 2.28D-04  0.00D+00 EMaxC= 1.00D-01 BMatC= 5.57D-06 BMatP= 5.57D-06
 IDIUse=3 WtCom= 9.98D-01 WtEn= 2.28D-03
 Coeff-Com:  0.100D+01
 Coeff-En:   0.100D+01
 Coeff:      0.100D+01
 Gap=     0.307 Goal=   None    Shift=    0.000
 RMSDP=2.23D-05 MaxDP=4.87D-04              OVMax= 8.09D-04

 Cycle   2  Pass 1  IDiag  1:
 E= -489.919346603282     Delta-E=       -0.000007764514 Rises=F Damp=F
 DIIS: error= 1.14D-04 at cycle   2 NSaved=   2.
 NSaved= 2 IEnMin= 2 EnMin= -489.919346603282     IErMin= 2 ErrMin= 1.14D-04
 ErrMax= 1.14D-04  0.00D+00 EMaxC= 1.00D-01 BMatC= 8.33D-07 BMatP= 5.57D-06
 IDIUse=3 WtCom= 9.99D-01 WtEn= 1.14D-03
 Coeff-Com:  0.105D+00 0.895D+00
 Coeff-En:   0.000D+00 0.100D+01
 Coeff:      0.105D+00 0.895D+00
 Gap=     0.307 Goal=   None    Shift=    0.000
 RMSDP=8.17D-06 MaxDP=1.93D-04 DE=-7.76D-06 OVMax= 4.05D-04

 Cycle   3  Pass 1  IDiag  1:
 E= -489.919347638883     Delta-E=       -0.000001035601 Rises=F Damp=F
 DIIS: error= 7.94D-05 at cycle   3 NSaved=   3.
 NSaved= 3 IEnMin= 3 EnMin= -489.919347638883     IErMin= 3 ErrMin= 7.94D-05
 ErrMax= 7.94D-05  0.00D+00 EMaxC= 1.00D-01 BMatC= 3.39D-07 BMatP= 8.33D-07
 IDIUse=1 WtCom= 1.00D+00 WtEn= 0.00D+00
 Coeff-Com: -0.952D-01 0.348D+00 0.748D+00
 Coeff:     -0.952D-01 0.348D+00 0.748D+00
 Gap=     0.307 Goal=   None    Shift=    0.000
 RMSDP=3.07D-06 MaxDP=6.80D-05 DE=-1.04D-06 OVMax= 2.37D-04

 Cycle   4  Pass 1  IDiag  1:
 E= -489.919348072898     Delta-E=       -0.000000434015 Rises=F Damp=F
 DIIS: error= 2.53D-05 at cycle   4 NSaved=   4.
 NSaved= 4 IEnMin= 4 EnMin= -489.919348072898     IErMin= 4 ErrMin= 2.53D-05
 ErrMax= 2.53D-05  0.00D+00 EMaxC= 1.00D-01 BMatC= 2.57D-08 BMatP= 3.39D-07
 IDIUse=1 WtCom= 1.00D+00 WtEn= 0.00D+00
 Coeff-Com: -0.213D-01-0.517D-01 0.111D+00 0.962D+00
 Coeff:     -0.213D-01-0.517D-01 0.111D+00 0.962D+00
 Gap=     0.307 Goal=   None    Shift=    0.000
 RMSDP=1.76D-06 MaxDP=3.85D-05 DE=-4.34D-07 OVMax= 1.31D-04

 Cycle   5  Pass 1  IDiag  1:
 E= -489.919348143445     Delta-E=       -0.000000070547 Rises=F Damp=F
 DIIS: error= 9.85D-06 at cycle   5 NSaved=   5.
 NSaved= 5 IEnMin= 5 EnMin= -489.919348143445     IErMin= 5 ErrMin= 9.85D-06
 ErrMax= 9.85D-06  0.00D+00 EMaxC= 1.00D-01 BMatC= 5.46D-09 BMatP= 2.57D-08
 IDIUse=1 WtCom= 1.00D+00 WtEn= 0.00D+00
 Coeff-Com:  0.150D-01-0.683D-01-0.131D+00 0.127D+00 0.106D+01
 Coeff:      0.150D-01-0.683D-01-0.131D+00 0.127D+00 0.106D+01
 Gap=     0.307 Goal=   None    Shift=    0.000
 RMSDP=1.04D-06 MaxDP=2.78D-05 DE=-7.05D-08 OVMax= 7.71D-05

 Cycle   6  Pass 1  IDiag  1:
 E= -489.919348160426     Delta-E=       -0.000000016982 Rises=F Damp=F
 DIIS: error= 2.67D-06 at cycle   6 NSaved=   6.
 NSaved= 6 IEnMin= 6 EnMin= -489.919348160426     IErMin= 6 ErrMin= 2.67D-06
 ErrMax= 2.67D-06  0.00D+00 EMaxC= 1.00D-01 BMatC= 5.24D-10 BMatP= 5.46D-09
 IDIUse=1 WtCom= 1.00D+00 WtEn= 0.00D+00
 Coeff-Com:  0.247D-02 0.116D-01-0.210D-01-0.125D+00-0.440D-01 0.118D+01
 Coeff:      0.247D-02 0.116D-01-0.210D-01-0.125D+00-0.440D-01 0.118D+01
 Gap=     0.307 Goal=   None    Shift=    0.000
 RMSDP=4.09D-07 MaxDP=1.15D-05 DE=-1.70D-08 OVMax= 2.64D-05

 Cycle   7  Pass 1  IDiag  1:
 E= -489.919348162442     Delta-E=       -0.000000002016 Rises=F Damp=F
 DIIS: error= 8.82D-07 at cycle   7 NSaved=   7.
 NSaved= 7 IEnMin= 7 EnMin= -489.919348162442     IErMin= 7 ErrMin= 8.82D-07
 ErrMax= 8.82D-07  0.00D+00 EMaxC= 1.00D-01 BMatC= 5.56D-11 BMatP= 5.24D-10
 IDIUse=1 WtCom= 1.00D+00 WtEn= 0.00D+00
 Coeff-Com: -0.146D-02 0.917D-02 0.909D-02-0.202D-01-0.116D+00 0.109D+00
 Coeff-Com:  0.101D+01
 Coeff:     -0.146D-02 0.917D-02 0.909D-02-0.202D-01-0.116D+00 0.109D+00
 Coeff:      0.101D+01
 Gap=     0.307 Goal=   None    Shift=    0.000
 RMSDP=1.19D-07 MaxDP=4.44D-06 DE=-2.02D-09 OVMax= 7.60D-06

 Cycle   8  Pass 1  IDiag  1:
 E= -489.919348162592     Delta-E=       -0.000000000150 Rises=F Damp=F
 DIIS: error= 2.72D-07 at cycle   8 NSaved=   8.
 NSaved= 8 IEnMin= 8 EnMin= -489.919348162592     IErMin= 8 ErrMin= 2.72D-07
 ErrMax= 2.72D-07  0.00D+00 EMaxC= 1.00D-01 BMatC= 5.14D-12 BMatP= 5.56D-11
 IDIUse=1 WtCom= 1.00D+00 WtEn= 0.00D+00
 Coeff-Com:  0.561D-04-0.242D-02 0.397D-03 0.144D-01 0.254D-01-0.127D+00
 Coeff-Com: -0.217D+00 0.131D+01
 Coeff:      0.561D-04-0.242D-02 0.397D-03 0.144D-01 0.254D-01-0.127D+00
 Coeff:     -0.217D+00 0.131D+01
 Gap=     0.307 Goal=   None    Shift=    0.000
 RMSDP=5.03D-08 MaxDP=1.94D-06 DE=-1.50D-10 OVMax= 2.06D-06

 Cycle   9  Pass 1  IDiag  1:
 E= -489.919348162619     Delta-E=       -0.000000000027 Rises=F Damp=F
 DIIS: error= 1.41D-07 at cycle   9 NSaved=   9.
 NSaved= 9 IEnMin= 9 EnMin= -489.919348162619     IErMin= 9 ErrMin= 1.41D-07
 ErrMax= 1.41D-07  0.00D+00 EMaxC= 1.00D-01 BMatC= 8.58D-13 BMatP= 5.14D-12
 IDIUse=1 WtCom= 1.00D+00 WtEn= 0.00D+00
 Coeff-Com:  0.177D-03-0.538D-03-0.130D-02-0.253D-02 0.859D-02 0.279D-01
 Coeff-Com: -0.656D-01-0.408D+00 0.144D+01
 Coeff:      0.177D-03-0.538D-03-0.130D-02-0.253D-02 0.859D-02 0.279D-01
 Coeff:     -0.656D-01-0.408D+00 0.144D+01
 Gap=     0.307 Goal=   None    Shift=    0.000
 RMSDP=1.57D-08 MaxDP=3.36D-07 DE=-2.71D-11 OVMax= 1.19D-06

 Cycle  10  Pass 1  IDiag  1:
 E= -489.919348162624     Delta-E=       -0.000000000005 Rises=F Damp=F
 DIIS: error= 7.42D-08 at cycle  10 NSaved=  10.
 NSaved=10 IEnMin=10 EnMin= -489.919348162624     IErMin=10 ErrMin= 7.42D-08
 ErrMax= 7.42D-08  0.00D+00 EMaxC= 1.00D-01 BMatC= 1.59D-13 BMatP= 8.58D-13
 IDIUse=1 WtCom= 1.00D+00 WtEn= 0.00D+00
 Coeff-Com: -0.869D-04 0.607D-03 0.529D-03-0.154D-02-0.657D-02 0.705D-02
 Coeff-Com:  0.583D-01-0.239D-01-0.580D+00 0.155D+01
 Coeff:     -0.869D-04 0.607D-03 0.529D-03-0.154D-02-0.657D-02 0.705D-02
 Coeff:      0.583D-01-0.239D-01-0.580D+00 0.155D+01
 Gap=     0.307 Goal=   None    Shift=    0.000
 RMSDP=8.96D-09 MaxDP=2.45D-07 DE=-4.66D-12 OVMax= 7.48D-07

 SCF Done:  E(RHF) =  -489.919348163     A.U. after   10 cycles
            NFock= 10  Conv=0.90D-08     -V/T= 2.0005
 KE= 4.896548161122D+02 PE=-1.310587965881D+03 EE= 2.609342063960D+02
 Leave Link  502 at Wed May  4 19:07:42 2022, MaxMem=   754974720 cpu:              14.0 elap:               3.9
 (Enter /opt/cluster/programs/g16-c.01/g16/l801.exe)
 ExpMin= 3.51D-02 ExpMax= 3.74D+05 ExpMxC= 1.18D+03 IAcc=3 IRadAn=         5 AccDes= 0.00D+00
 HarFok:  IExCor=  205 AccDes= 0.00D+00 IRadAn=         5 IDoV=-2 UseB2=F ITyADJ=14
 ICtDFT= 12500011 ScaDFX=  1.000000  1.000000  1.000000  1.000000
 Largest valence mixing into a core orbital is  5.38D-04
 Largest core mixing into a valence orbital is  1.42D-04
 Range of M.O.s used for correlation:     8   142
 NBasis=   142 NAE=    15 NBE=    15 NFC=     7 NFV=     0
 NROrb=    135 NOA=     8 NOB=     8 NVA=   127 NVB=   127

 **** Warning!!: The largest alpha MO coefficient is  0.18527729D+02

 Leave Link  801 at Wed May  4 19:07:42 2022, MaxMem=   754974720 cpu:               0.4 elap:               0.1
 (Enter /opt/cluster/programs/g16-c.01/g16/l906.exe)
 Frozen-core derivative calculation, NFC=   7 NFV=   0.
 FulOut=F Deriv=T AODrv=T NAtomX=     3
   MMem=          74  MDisk=           8 MDiskD=           8
  W3Min=      359970 MinDsk=      723803 NBas6D=         169
 NBas2D=       14809    NTT=       14365    LW2=     3500000
    MDV=   754677615 MDiskM=       22268 NBas2p=       14795
 Fully direct method using O(ONN) memory.
 IMap=   1   2   3   4   5   6   7   8   9  10  11  12  13  14  15
 JobTyp=1 Pass  1:  I=   8 to  15 NPSUse=  4 ParTrn=T ParDer=T DoDerP=T.
 Spin components of T(2) and E(2):
     alpha-alpha T2 =       0.2954351525D-01 E2=     -0.6976655677D-01
     alpha-beta  T2 =       0.1565891443D+00 E2=     -0.3982061339D+00
     beta-beta   T2 =       0.2954351525D-01 E2=     -0.6976655677D-01
 The integrals were generated   1 times.
 ANorm=    0.1102577061D+01
 E2 =    -0.5377392475D+00 EUMP2 =    -0.49045708741011D+03
 Leave Link  906 at Wed May  4 19:07:50 2022, MaxMem=   754974720 cpu:              32.0 elap:               8.0
 (Enter /opt/cluster/programs/g16-c.01/g16/l1002.exe)
 Minotr:  Closed shell wavefunction.
          Computing MP2/KS-MP2 derivatives.
          Using Z-Vector for PSCF gradient.
          Skipping F1 and S1 gradient terms here.
          IDoAtm=111
          Frozen-core window.
          Direct CPHF calculation.
          Differentiating once with respect to electric field.
                with respect to dipole field.
          Differentiating once with respect to nuclear coordinates.
          Using symmetry in CPHF.
          Requested convergence is 1.0D-10 RMS, and 1.0D-09 maximum.
          NewPWx=F KeepS1=T KeepF1=T KeepIn=T MapXYZ=F SortEE=F KeepMc=T.
 Keep R1 ints in memory in symmetry-blocked form, NReq=77616884.
 FoFCou: FMM=F IPFlag=           0 FMFlag=           0 FMFlg1=           0
         NFxFlg=           0 DoJE=F BraDBF=F KetDBF=F FulRan=T
         wScrn=  0.000000 ICntrl=       600 IOpCl=  0 I1Cent=           0 NGrid=           0
         NMat0=    1 NMatS0=  10153 NMatT0=    0 NMatD0=    1 NMtDS0=    0 NMtDT0=    0
 Petite list used in FoFCou.
          MDV=     754974720 using IRadAn=       5.
          Solving linear equations separately, MaxMat=       0.
          There are     1 degrees of freedom in the 1st order CPHF.  IDoFFX=0 NUNeed=     1.
 LinEq1:  Iter=  0 NonCon=     1 RMS=5.12D-03 Max=8.98D-02 NDo=     1
 AX will form     1 AO Fock derivatives at one time.
 LinEq1:  Iter=  1 NonCon=     1 RMS=1.78D-03 Max=1.83D-02 NDo=     1
 LinEq1:  Iter=  2 NonCon=     1 RMS=6.75D-04 Max=9.84D-03 NDo=     1
 LinEq1:  Iter=  3 NonCon=     1 RMS=3.78D-04 Max=5.86D-03 NDo=     1
[...]
 IDIUse=1 WtCom= 1.00D+00 WtEn= 0.00D+00
 Coeff-Com:  0.634D-05 0.135D-02-0.103D-02-0.768D-02-0.657D-02 0.552D-01
 Coeff-Com:  0.128D+00-0.943D+00 0.177D+01
 Coeff:      0.634D-05 0.135D-02-0.103D-02-0.768D-02-0.657D-02 0.552D-01
 Coeff:      0.128D+00-0.943D+00 0.177D+01
 Gap=     0.307 Goal=   None    Shift=    0.000
 RMSDP=7.13D-09 MaxDP=1.85D-07 DE=-1.48D-12 OVMax= 6.68D-07

 SCF Done:  E(RHF) =  -489.919414895     A.U. after    9 cycles
            NFock=  9  Conv=0.71D-08     -V/T= 2.0005
 KE= 4.896553464304D+02 PE=-1.310580666426D+03 EE= 2.609302592418D+02
 Leave Link  502 at Wed May  4 19:08:02 2022, MaxMem=   754974720 cpu:              12.3 elap:               3.2
 (Enter /opt/cluster/programs/g16-c.01/g16/l801.exe)
 ExpMin= 3.51D-02 ExpMax= 3.74D+05 ExpMxC= 1.18D+03 IAcc=3 IRadAn=         5 AccDes= 0.00D+00
 HarFok:  IExCor=  205 AccDes= 0.00D+00 IRadAn=         5 IDoV=-2 UseB2=F ITyADJ=14
 ICtDFT= 12500011 ScaDFX=  1.000000  1.000000  1.000000  1.000000
 Largest valence mixing into a core orbital is  5.38D-04
 Largest core mixing into a valence orbital is  1.42D-04
 Range of M.O.s used for correlation:     8   142
 NBasis=   142 NAE=    15 NBE=    15 NFC=     7 NFV=     0
 NROrb=    135 NOA=     8 NOB=     8 NVA=   127 NVB=   127

 **** Warning!!: The largest alpha MO coefficient is  0.18526080D+02

 Leave Link  801 at Wed May  4 19:08:02 2022, MaxMem=   754974720 cpu:               0.4 elap:               0.1
 (Enter /opt/cluster/programs/g16-c.01/g16/l906.exe)
 Frozen-core derivative calculation, NFC=   7 NFV=   0.
 FulOut=F Deriv=T AODrv=T NAtomX=     3
   MMem=          74  MDisk=           8 MDiskD=           8
  W3Min=      359970 MinDsk=      723803 NBas6D=         169
 NBas2D=       14809    NTT=       14365    LW2=     3500000
    MDV=   754677615 MDiskM=       22268 NBas2p=       14795
 Fully direct method using O(ONN) memory.
 IMap=   1   2   3   4   5   6   7   8   9  10  11  12  13  14  15
 JobTyp=1 Pass  1:  I=   8 to  15 NPSUse=  4 ParTrn=T ParDer=T DoDerP=T.
 Spin components of T(2) and E(2):
     alpha-alpha T2 =       0.2953313230D-01 E2=     -0.6975367577D-01
     alpha-beta  T2 =       0.1565497308D+00 E2=     -0.3981654657D+00
     beta-beta   T2 =       0.2953313230D-01 E2=     -0.6975367577D-01
 The integrals were generated   1 times.
 ANorm=    0.1102549770D+01
 E2 =    -0.5376728172D+00 EUMP2 =    -0.49045708771248D+03
 Leave Link  906 at Wed May  4 19:08:10 2022, MaxMem=   754974720 cpu:              33.3 elap:               8.3
 (Enter /opt/cluster/programs/g16-c.01/g16/l1002.exe)
 Minotr:  Closed shell wavefunction.
          Computing MP2/KS-MP2 derivatives.
          Using Z-Vector for PSCF gradient.
          Skipping F1 and S1 gradient terms here.
          IDoAtm=111
          Frozen-core window.
          Direct CPHF calculation.
          Differentiating once with respect to electric field.
                with respect to dipole field.
          Differentiating once with respect to nuclear coordinates.
          Using symmetry in CPHF.
          Requested convergence is 1.0D-10 RMS, and 1.0D-09 maximum.
          NewPWx=F KeepS1=T KeepF1=T KeepIn=T MapXYZ=F SortEE=F KeepMc=T.
 Keep R1 ints in memory in symmetry-blocked form, NReq=77616884.
 FoFCou: FMM=F IPFlag=           0 FMFlag=           0 FMFlg1=           0
         NFxFlg=           0 DoJE=F BraDBF=F KetDBF=F FulRan=T
         wScrn=  0.000000 ICntrl=       600 IOpCl=  0 I1Cent=           0 NGrid=           0
         NMat0=    1 NMatS0=  10153 NMatT0=    0 NMatD0=    1 NMtDS0=    0 NMtDT0=    0
 Petite list used in FoFCou.
          MDV=     754974720 using IRadAn=       5.
          Solving linear equations separately, MaxMat=       0.
          There are     1 degrees of freedom in the 1st order CPHF.  IDoFFX=0 NUNeed=     1.
 LinEq1:  Iter=  0 NonCon=     1 RMS=5.12D-03 Max=8.97D-02 NDo=     1
 AX will form     1 AO Fock derivatives at one time.
 LinEq1:  Iter=  1 NonCon=     1 RMS=1.78D-03 Max=1.83D-02 NDo=     1
 LinEq1:  Iter=  2 NonCon=     1 RMS=6.74D-04 Max=9.82D-03 NDo=     1
 LinEq1:  Iter=  3 NonCon=     1 RMS=3.78D-04 Max=5.84D-03 NDo=     1
 LinEq1:  Iter=  4 NonCon=     1 RMS=2.12D-04 Max=5.67D-03 NDo=     1
 LinEq1:  Iter=  5 NonCon=     1 RMS=7.74D-05 Max=7.92D-04 NDo=     1
 LinEq1:  Iter=  6 NonCon=     1 RMS=2.16D-05 Max=2.53D-04 NDo=     1
 LinEq1:  Iter=  7 NonCon=     1 RMS=5.23D-06 Max=6.47D-05 NDo=     1
 LinEq1:  Iter=  8 NonCon=     1 RMS=1.15D-06 Max=1.05D-05 NDo=     1
 LinEq1:  Iter=  9 NonCon=     1 RMS=3.32D-07 Max=4.59D-06 NDo=     1
 LinEq1:  Iter= 10 NonCon=     1 RMS=7.43D-08 Max=8.39D-07 NDo=     1
 LinEq1:  Iter= 11 NonCon=     1 RMS=1.51D-08 Max=1.19D-07 NDo=     1
 LinEq1:  Iter= 12 NonCon=     1 RMS=3.06D-09 Max=3.82D-08 NDo=     1
 LinEq1:  Iter= 13 NonCon=     1 RMS=5.17D-10 Max=6.44D-09 NDo=     1
 LinEq1:  Iter= 14 NonCon=     1 RMS=8.87D-11 Max=1.03D-09 NDo=     1
 LinEq1:  Iter= 15 NonCon=     0 RMS=1.55D-11 Max=1.31D-10 NDo=     1
 Linear equations converged to 1.000D-10 1.000D-09 after    15 iterations.
 End of Minotr F.D. properties file   721 does not exist.
 End of Minotr F.D. properties file   722 does not exist.
 End of Minotr F.D. properties file   788 does not exist.
 Leave Link 1002 at Wed May  4 19:08:14 2022, MaxMem=   754974720 cpu:              13.8 elap:               3.8
 (Enter /opt/cluster/programs/g16-c.01/g16/l701.exe)
 ... and contract with generalized density number  2.
 Compute integral first derivatives.
 Leave Link  701 at Wed May  4 19:08:14 2022, MaxMem=   754974720 cpu:               0.7 elap:               0.2
 (Enter /opt/cluster/programs/g16-c.01/g16/l702.exe)
 L702 exits ... SP integral derivatives will be done elsewhere.
 Leave Link  702 at Wed May  4 19:08:15 2022, MaxMem=   754974720 cpu:               0.1 elap:               0.0
 (Enter /opt/cluster/programs/g16-c.01/g16/l703.exe)
 Integral derivatives from FoFJK, PRISM(SPDF).
 Compute integral first derivatives, UseDBF=F ICtDFT=           0.
 Calling FoFJK, ICntrl=  10002127 FMM=F ISym2X=1 I1Cent= 0 IOpClX= 0 NMat=1 NMatS=1 NMatT=0.
 FoFJK:  IHMeth= 1 ICntrl=10002127 DoSepK=F KAlg= 0 I1Cent=           0 FoldK=F
 IRaf=         0 NMat=       1 IRICut=       1 DoRegI=T DoRafI=F ISym2E= 1 IDoP0=0 IntGTp=1.
 FoFCou: FMM=F IPFlag=           0 FMFlag=      100000 FMFlg1=         800
         NFxFlg=           0 DoJE=F BraDBF=F KetDBF=F FulRan=T
         wScrn=  0.000000 ICntrl=  10002127 IOpCl=  0 I1Cent=           0 NGrid=           0
         NMat0=    1 NMatS0=      1 NMatT0=    0 NMatD0=    1 NMtDS0=    0 NMtDT0=    0
 Petite list used in FoFCou.
 Leave Link  703 at Wed May  4 19:08:18 2022, MaxMem=   754974720 cpu:              14.9 elap:               3.7
 (Enter /opt/cluster/programs/g16-c.01/g16/l716.exe)
 Dipole        =-2.12453697D-01-3.29000490D-01 4.88029599D-30
 ***** Axes restored to original set *****
 -------------------------------------------------------------------
 Center     Atomic                   Forces (Hartrees/Bohr)
 Number     Number              X              Y              Z
 -------------------------------------------------------------------
      1        7          -0.031671777    0.000000000    0.000124614
      2        6           0.050549320   -0.000000000   -0.012360434
      3       16          -0.018877542    0.000000000    0.012235821
 -------------------------------------------------------------------
 Cartesian Forces:  Max     0.050549320 RMS     0.021646678
 Leave Link  716 at Wed May  4 19:08:18 2022, MaxMem=   754974720 cpu:               0.3 elap:               0.1
 (Enter /opt/cluster/programs/g16-c.01/g16/l103.exe)

 GradGradGradGradGradGradGradGradGradGradGradGradGradGradGradGradGradGrad
 Berny optimization.
 Using GEDIIS/GDIIS optimizer.
 FormGI is forming the generalized inverse of G from B-inverse, IUseBI=4.
 Internal  Forces:  Max     0.071699077 RMS     0.041395579
 Search for a local minimum.
 Step number   4 out of a maximum of   20
 All quantities printed in internal units (Hartrees-Bohrs-Radians)
 RMS Force = .11004D-03 SwitMx=.10000D-02 MixMth= 2
 Mixed Optimization -- En-DIIS/RFO-DIIS
 Swapping is turned off.
 Update second derivatives using D2CorX and points    1    2    4
 DE= -3.02D-07 DEPred=-2.46D-07 R= 1.23D+00
 Trust test= 1.23D+00 RLast= 9.66D-04 DXMaxT set to 3.00D-01
 The second derivative matrix:
                          R1        R2        A1
           R1           1.07860
           R2           0.05825   0.29447
           A1           0.05883   0.05966   0.26416
 ITU=  0  1  1  0
     Eigenvalues ---    0.29016   1.082911000.00000
 En-DIIS/RFO-DIIS/Sim-DIIS IScMMF=       -3 using points:     4    3
 RFO step:  Lambda=-5.16360493D-06.
 NNeg= 0 NGDIIS= 2 SimSw=  2.50D-01 Rises=F DC= -3.02D-07 SmlDif=  1.00D-05
 NRisDI= 0 DoIntr=F SqrtH=F CThrHd= 10.0 CDAdj=  3.0
 RMS Error=  0.9644587798D-04 NUsed= 2 OKEnD=F EnDIS=F
 InvSVX:  RCond= 2.02D-07 Info=           0 Equed=N FErr=  1.27D-15 BErr=  4.96D-17
 DidBck=F Rises=F RFO-DIIS coefs:    1.11820   -0.11820
 Iteration  1 RMS(Cart)=  0.00006669 RMS(Int)=  0.00000000
 Iteration  2 RMS(Cart)=  0.00000000 RMS(Int)=  0.00000000
 Iteration  1 RMS(Cart)=  0.00000000 RMS(Int)=  0.00000000
 ITry= 1 IFail=0 DXMaxC= 8.99D-05 DCOld= 1.00D+10 DXMaxT= 3.00D-01 DXLimC= 3.00D+00 Rises=F
 ClnCor:  largest displacement from symmetrization is 9.90D-16 for atom     1.
 Variable       Old X    -DE/DX   Delta X   Delta X   Delta X     New X
                                 (Linear)    (Quad)   (Total)
    R1        2.26382  -0.00016  -0.00007  -0.00009  -0.00016   2.26367
    R2        3.18717   0.00000   0.00009  -0.00005   0.00004   3.18721
    A1        2.56563   0.07170   0.00000   0.00000   0.00000   2.56563
         Item               Value     Threshold  Converged?
 Maximum Force            0.000156     0.000450     YES
 RMS     Force            0.000110     0.000300     YES
 Maximum Displacement     0.000090     0.001800     YES
 RMS     Displacement     0.000067     0.001200     YES
 Predicted change in Energy=-1.135392D-08
 Optimization completed.
    -- Stationary point found.
                           ----------------------------
                           !   Optimized Parameters   !
                           ! (Angstroms and Degrees)  !
 --------------------------                            --------------------------
 ! Name  Definition              Value          Derivative Info.                !
 --------------------------------------------------------------------------------
 ! R1    R(1,2)                  1.198          -DE/DX =   -0.0002              !
 ! R2    R(2,3)                  1.6866         -DE/DX =    0.0                 !
 ! A1    A(1,2,3)              147.0            -DE/DX =    0.0717              !
 --------------------------------------------------------------------------------
 Lowest energy point so far.  Saving SCF results.
 Largest change from initial coordinates is atom    1       0.013 Angstoms.
 GradGradGradGradGradGradGradGradGradGradGradGradGradGradGradGradGradGrad

 Leave Link  103 at Wed May  4 19:08:18 2022, MaxMem=   754974720 cpu:               0.0 elap:               0.0
 (Enter /opt/cluster/programs/g16-c.01/g16/l202.exe)
                          Input orientation:                          
 ---------------------------------------------------------------------
 Center     Atomic      Atomic             Coordinates (Angstroms)
 Number     Number       Type             X           Y           Z
 ---------------------------------------------------------------------
      1          7           0       -0.003407   -0.000000   -1.832140
      2          6           0       -0.004579    0.000000   -0.634176
      3         16           0        0.912614   -0.000000    0.781206
 ---------------------------------------------------------------------
                    Distance matrix (angstroms):
                    1          2          3
     1  N    0.000000
     2  C    1.197965   0.000000
     3  S    2.769237   1.686579   0.000000
 Stoichiometry    CNS(1-)
 Framework group  CS[SG(CNS)]
 Deg. of freedom     3
 Full point group                 CS      NOp   2
 RotChk:  IX=0 Diff= 7.56D-15
 Largest Abelian subgroup         CS      NOp   2
 Largest concise Abelian subgroup C1      NOp   1
                         Standard orientation:                         
 ---------------------------------------------------------------------
 Center     Atomic      Atomic             Coordinates (Angstroms)
 Number     Number       Type             X           Y           Z
 ---------------------------------------------------------------------
      1          7           0        0.860191    1.539589   -0.000000
      2          6           0        0.000000    0.705808   -0.000000
      3         16           0       -0.376333   -0.938248    0.000000
 ---------------------------------------------------------------------
 Rotational constants (GHZ):         363.9676454           6.2534428           6.1478152
 Leave Link  202 at Wed May  4 19:08:18 2022, MaxMem=   754974720 cpu:               0.1 elap:               0.0
 (Enter /opt/cluster/programs/g16-c.01/g16/l601.exe)
 Copying SCF densities to generalized density rwf, IOpCl= 0 IROHF=0.

 **********************************************************************

            Population analysis using the SCF Density.

 **********************************************************************

 Orbital symmetries:
       Occupied  (A') (A') (A') (A') (A') (A") (A') (A') (A') (A')
                 (A') (A") (A') (A") (A')
       Virtual   (A') (A') (A') (A") (A') (A") (A') (A") (A') (A')
                 (A') (A') (A") (A') (A') (A") (A') (A') (A") (A')
                 (A") (A') (A') (A") (A') (A') (A") (A') (A') (A')
                 (A") (A') (A") (A') (A") (A') (A") (A') (A") (A')
                 (A') (A') (A") (A') (A') (A") (A') (A") (A') (A")
                 (A') (A') (A") (A') (A') (A") (A') (A") (A') (A')
                 (A') (A") (A') (A") (A') (A") (A') (A") (A') (A')
                 (A') (A") (A') (A") (A") (A') (A') (A') (A') (A")
                 (A") (A') (A") (A') (A') (A") (A') (A") (A') (A')
                 (A') (A") (A') (A') (A") (A') (A") (A') (A") (A')
                 (A') (A") (A') (A") (A') (A") (A') (A') (A') (A")
                 (A') (A') (A") (A') (A') (A") (A") (A') (A') (A")
                 (A') (A") (A') (A') (A') (A') (A')
 The electronic state is 1-A'.
 Alpha  occ. eigenvalues --  -91.72823 -15.36844 -11.10237  -8.72978  -6.41169
 Alpha  occ. eigenvalues --   -6.40919  -6.40911  -1.00082  -0.75816  -0.41614
 Alpha  occ. eigenvalues --   -0.33216  -0.29893  -0.29768  -0.13778  -0.13191
 Alpha virt. eigenvalues --    0.17512   0.19151   0.22289   0.23530   0.23948
 Alpha virt. eigenvalues --    0.24159   0.24732   0.29262   0.30175   0.30999
 Alpha virt. eigenvalues --    0.33418   0.37769   0.39584   0.42060   0.44588
 Alpha virt. eigenvalues --    0.45712   0.46410   0.53706   0.53937   0.54575
 Alpha virt. eigenvalues --    0.55481   0.59030   0.61527   0.63935   0.64970
 Alpha virt. eigenvalues --    0.70186   0.70671   0.74901   0.76980   0.77350
 Alpha virt. eigenvalues --    0.77406   0.80791   0.81497   0.87951   0.90438
 Alpha virt. eigenvalues --    0.93079   0.95693   0.96340   1.00786   1.01745
 Alpha virt. eigenvalues --    1.02170   1.07227   1.07335   1.14524   1.15579
 Alpha virt. eigenvalues --    1.15848   1.23779   1.26229   1.27653   1.28373
 Alpha virt. eigenvalues --    1.29406   1.33457   1.36160   1.38749   1.43305
 Alpha virt. eigenvalues --    1.48698   1.49838   1.54503   1.56200   1.60430
 Alpha virt. eigenvalues --    1.71343   1.73890   1.75575   1.79309   1.84351
 Alpha virt. eigenvalues --    1.90415   1.91264   2.03255   2.04209   2.06901
 Alpha virt. eigenvalues --    2.13816   2.15919   2.17408   2.27353   2.29930
 Alpha virt. eigenvalues --    2.30018   2.32415   2.40261   2.42486   2.45010
 Alpha virt. eigenvalues --    2.50615   2.55477   2.59358   2.60171   2.60694
 Alpha virt. eigenvalues --    2.60773   2.65953   2.71029   2.73234   2.81917
 Alpha virt. eigenvalues --    2.93394   2.98114   3.20533   3.27193   3.27265
 Alpha virt. eigenvalues --    3.61681   3.67965   3.69294   3.72906   3.73724
 Alpha virt. eigenvalues --    3.78621   3.89208   3.95271   3.97985   4.00530
 Alpha virt. eigenvalues --    4.09213   4.13922   4.23875   4.63245   4.69322
 Alpha virt. eigenvalues --    4.83894   4.89622   5.19902   5.20089   5.44917
 Alpha virt. eigenvalues --    5.47643   5.65015   5.66358   5.82110   5.84142
 Alpha virt. eigenvalues --    6.17835   6.22835   6.31157   6.33714   6.69831
 Alpha virt. eigenvalues --   11.94093  15.92367
          Condensed to atoms (all electrons):
               1          2          3
     1  N    6.881256   0.664897  -0.112266
     2  C    0.664897   5.088899   0.325267
     3  S   -0.112266   0.325267  16.274051
 Mulliken charges:
               1
     1  N   -0.433887
     2  C   -0.079062
     3  S   -0.487051
 Sum of Mulliken charges =  -1.00000
 Mulliken charges with hydrogens summed into heavy atoms:
               1
     1  N   -0.433887
     2  C   -0.079062
     3  S   -0.487051
 Electronic spatial extent (au):  <R**2>=            220.7852
 Charge=             -1.0000 electrons
 Dipole moment (field-independent basis, Debye):
    X=             -0.6660    Y=             -0.8267    Z=              0.0000  Tot=              1.0616
 Quadrupole moment (field-independent basis, Debye-Ang):
   XX=            -32.1602   YY=            -37.8708   ZZ=            -29.4642
   XY=             -5.2566   XZ=              0.0000   YZ=              0.0000
 Traceless Quadrupole moment (field-independent basis, Debye-Ang):
   XX=              1.0049   YY=             -4.7057   ZZ=              3.7008
   XY=             -5.2566   XZ=              0.0000   YZ=              0.0000
 Octapole moment (field-independent basis, Debye-Ang**2):
  XXX=              2.5136  YYY=            -14.4875  ZZZ=              0.0000  XYY=             -6.5485
  XXY=             -0.9535  XXZ=              0.0000  XZZ=              1.1492  YZZ=              1.9318
  YYZ=              0.0000  XYZ=              0.0000
 Hexadecapole moment (field-independent basis, Debye-Ang**3):
 XXXX=            -95.2520 YYYY=           -260.0298 ZZZZ=            -46.6779 XXXY=            -50.8502
 XXXZ=              0.0000 YYYX=            -53.8599 YYYZ=              0.0000 ZZZX=              0.0000
 ZZZY=              0.0000 XXYY=            -63.8281 XXZZ=            -23.4325 YYZZ=            -50.9682
 XXYZ=              0.0000 YYXZ=              0.0000 ZZXY=            -15.9827
 N-N= 7.007564585887D+01 E-N=-1.310580666398D+03  KE= 4.896553464304D+02
 Symmetry A'   KE= 4.486447669308D+02
 Symmetry A"   KE= 4.101057949959D+01
 No NMR shielding tensors so no spin-rotation constants.
 Leave Link  601 at Wed May  4 19:08:19 2022, MaxMem=   754974720 cpu:               0.7 elap:               0.2
 (Enter /opt/cluster/programs/g16-c.01/g16/l9999.exe)
 Unable to Open any file for archive entry.
 1\1\GINC-NODE41\FOpt\RMP2-FC\Aug-CC-pVTZ\C1N1S1(1-)\TOEPFER\04-May-202
 2\0\\#P MP2/aug-cc-pVTZ scf(maxcycle=200) opt geom(AddGIC)\\Gaussian i
 nput\\-1,1\N,-0.0034068021,0.,-1.8321400857\C,-0.0045788299,0.,-0.6341
 760673\S,0.9126136407,0.,0.7812061288\\Version=ES64L-G16RevC.01\State=
 1-A'\HF=-489.9194149\MP2=-490.4570877\RMSD=7.125e-09\RMSF=2.165e-02\Di
 pole=0.087996,0.,0.381621\PG=CS [SG(C1N1S1)]\\@
 The archive entry for this job was punched.


 THE LENGTH OF A MEETING IS PROPORTIONAL TO THE
 SQUARE OF THE PARTICIPANTS.
 Job cpu time:       0 days  0 hours  5 minutes 21.8 seconds.
 Elapsed time:       0 days  0 hours  1 minutes 25.4 seconds.
 File lengths (MBytes):  RWF=     15 Int=      0 D2E=      0 Chk=      3 Scr=      1
 Normal termination of Gaussian 16 at Wed May  4 19:08:19 2022.
